 Output coordinates in angstroms (scale by  1.889725989 to convert to a.u.)

  No.       Tag          Charge          X              Y              Z
 ---- ---------------- ---------- -------------- -------------- --------------
    1 C                    6.0000     0.00000000     0.00000000     0.00000000

         Total SCF energy =    -37.604578275565

 Vector   30  Occ=0.000000D+00  E= 7.982765D-01

 Vector   31  Occ=0.000000D+00  E= 1.573792D+00

 Vector   32  Occ=0.000000D+00  E= 1.573792D+00

 Vector   33  Occ=0.000000D+00  E= 1.591118D+00

 Vector   34  Occ=0.000000D+00  E= 2.025892D+00

 Vector   35  Occ=0.000000D+00  E= 2.089992D+00

 Vector   36  Occ=0.000000D+00  E= 2.089992D+00

 Vector   37  Occ=0.000000D+00  E= 2.118339D+00

 Vector   38  Occ=0.000000D+00  E= 2.118339D+00

 Vector   39  Occ=0.000000D+00  E= 2.138632D+00

 Vector   40  Occ=0.000000D+00  E= 2.138632D+00

 Vector   41  Occ=0.000000D+00  E= 2.150827D+00

 Vector   42  Occ=0.000000D+00  E= 2.150827D+00

 Vector   43  Occ=0.000000D+00  E= 2.154895D+00

 Vector   44  Occ=0.000000D+00  E= 2.190629D+00

 Vector   45  Occ=0.000000D+00  E= 2.190629D+00

 Vector   46  Occ=0.000000D+00  E= 2.224677D+00

 Vector   47  Occ=0.000000D+00  E= 2.224677D+00

 Vector   48  Occ=0.000000D+00  E= 2.237432D+00

 Vector   49  Occ=0.000000D+00  E= 2.245171D+00

 Vector   50  Occ=0.000000D+00  E= 2.245171D+00

 Vector   51  Occ=0.000000D+00  E= 2.283145D+00

 Vector   52  Occ=0.000000D+00  E= 2.283145D+00

 Vector   53  Occ=0.000000D+00  E= 2.306622D+00

 Vector   54  Occ=0.000000D+00  E= 2.306622D+00

 Vector   55  Occ=0.000000D+00  E= 2.314600D+00

 Vector   56  Occ=0.000000D+00  E= 5.167139D+00

 Vector   57  Occ=0.000000D+00  E= 5.167139D+00

 Vector   58  Occ=0.000000D+00  E= 5.224839D+00

 Vector   59  Occ=0.000000D+00  E= 5.873904D+00

 Vector   60  Occ=0.000000D+00  E= 5.873904D+00

 Vector   61  Occ=0.000000D+00  E= 5.921174D+00

 Vector   62  Occ=0.000000D+00  E= 5.921174D+00

 Vector   63  Occ=0.000000D+00  E= 5.954845D+00

 Vector   64  Occ=0.000000D+00  E= 5.954845D+00

 Vector   65  Occ=0.000000D+00  E= 5.975011D+00

 Vector   66  Occ=0.000000D+00  E= 5.975011D+00

 Vector   67  Occ=0.000000D+00  E= 5.981727D+00

 Vector   68  Occ=0.000000D+00  E= 6.319865D+00

 Vector   69  Occ=0.000000D+00  E= 6.319865D+00

 Vector   70  Occ=0.000000D+00  E= 6.374997D+00

 Vector   71  Occ=0.000000D+00  E= 6.374997D+00

 Vector   72  Occ=0.000000D+00  E= 6.393612D+00

 Vector   73  Occ=0.000000D+00  E= 6.418132D+00

 Vector   74  Occ=0.000000D+00  E= 6.418132D+00

 Vector   75  Occ=0.000000D+00  E= 6.473027D+00

 Vector   76  Occ=0.000000D+00  E= 6.473027D+00

 Vector   77  Occ=0.000000D+00  E= 6.506281D+00

 Vector   78  Occ=0.000000D+00  E= 6.506281D+00

 Vector   79  Occ=0.000000D+00  E= 6.517435D+00

 Vector   80  Occ=0.000000D+00  E= 8.952256D+00

 Vector   81  Occ=0.000000D+00  E= 1.865905D+01

 Vector   82  Occ=0.000000D+00  E= 1.865905D+01

 Vector   83  Occ=0.000000D+00  E= 1.872025D+01

 Vector   84  Occ=0.000000D+00  E= 2.637504D+01

 Vector   85  Occ=0.000000D+00  E= 2.637504D+01

 Vector   86  Occ=0.000000D+00  E= 2.642040D+01

 Vector   87  Occ=0.000000D+00  E= 2.642040D+01

 Vector   88  Occ=0.000000D+00  E= 2.643532D+01

 Vector   89  Occ=0.000000D+00  E= 3.520176D+01

 Vector   90  Occ=0.000000D+00  E= 6.630291D+01

 Vector   91  Occ=0.000000D+00  E= 6.630291D+01

 Vector   92  Occ=0.000000D+00  E= 6.634334D+01

 Vector   93  Occ=0.000000D+00  E= 9.865573D+01

 Vector   94  Occ=0.000000D+00  E= 9.865573D+01

 Vector   95  Occ=0.000000D+00  E= 9.867875D+01

 Vector   96  Occ=0.000000D+00  E= 9.867875D+01

 Vector   97  Occ=0.000000D+00  E= 9.869254D+01

 Vector   98  Occ=0.000000D+00  E= 9.869254D+01

 Vector   99  Occ=0.000000D+00  E= 9.869713D+01

 Vector  100  Occ=0.000000D+00  E= 1.151039D+02

 Vector  101  Occ=0.000000D+00  E= 1.151039D+02

 Vector  102  Occ=0.000000D+00  E= 1.151263D+02

 Vector  103  Occ=0.000000D+00  E= 1.151263D+02

 Vector  104  Occ=0.000000D+00  E= 1.151337D+02

 Vector  105  Occ=0.000000D+00  E= 1.215483D+02

 Vector  106  Occ=0.000000D+00  E= 2.248202D+02

 Vector  107  Occ=0.000000D+00  E= 2.248202D+02

 Vector  108  Occ=0.000000D+00  E= 2.248392D+02

 Vector  109  Occ=0.000000D+00  E= 5.084469D+02

       Multipole analysis of the density wrt the origin
       ------------------------------------------------

     L   x y z        total         open         nuclear
     -   - - -        -----         ----         -------
     0   0 0 0     -0.000000      0.000000      6.000000

     1   1 0 0     -0.000000      0.000000      0.000000
     1   0 1 0     -0.000000      0.000000      0.000000
     1   0 0 1      0.000000      0.000000      0.000000

     2   2 0 0     -5.356399      0.000000      0.000000
     2   1 1 0     -0.367062      0.000000      0.000000
     2   1 0 1     -1.617944      0.000000      0.000000
     2   0 2 0     -3.856037      0.000000      0.000000
     2   0 1 1     -0.374609      0.000000      0.000000

 Total times  cpu:        6.0s     wall:        6.0s
