 Output coordinates in angstroms (scale by  1.889725989 to convert to a.u.)

  No.       Tag          Charge          X              Y              Z
 ---- ---------------- ---------- -------------- -------------- --------------
    1 C                    6.0000     0.00000000     0.00000000     0.00000000

         Total SCF energy =    -37.604596389676

 Vector    2  Occ=2.000000D+00  E=-7.255322D-01

 Vector    3  Occ=2.000000D+00  E=-3.583778D-01

 Vector    4  Occ=0.000000D+00  E= 1.855934D-02

 Vector    5  Occ=0.000000D+00  E= 1.855934D-02

 Vector    6  Occ=0.000000D+00  E= 4.854695D-02

 Vector    7  Occ=0.000000D+00  E= 7.943490D-02

 Vector    8  Occ=0.000000D+00  E= 9.506486D-02

 Vector    9  Occ=0.000000D+00  E= 9.506486D-02

 Vector   10  Occ=0.000000D+00  E= 2.075449D-01

 Vector   11  Occ=0.000000D+00  E= 2.193480D-01

 Vector   12  Occ=0.000000D+00  E= 2.193480D-01

 Vector   13  Occ=0.000000D+00  E= 2.278086D-01

 Vector   14  Occ=0.000000D+00  E= 2.278086D-01

 Vector   15  Occ=0.000000D+00  E= 2.333995D-01

 Vector   16  Occ=0.000000D+00  E= 3.090890D-01

 Vector   17  Occ=0.000000D+00  E= 3.237318D-01

 Vector   18  Occ=0.000000D+00  E= 3.237318D-01

 Vector   19  Occ=0.000000D+00  E= 5.318150D-01

       Multipole analysis of the density wrt the origin
       ------------------------------------------------

     L   x y z        total         open         nuclear
     -   - - -        -----         ----         -------
     0   0 0 0      0.000000      0.000000      6.000000

     1   1 0 0      0.000000      0.000000      0.000000
     1   0 1 0     -0.000000      0.000000      0.000000
     1   0 0 1     -0.000000      0.000000      0.000000

     2   2 0 0     -5.284364      0.000000      0.000000
     2   1 1 0     -0.695532      0.000000      0.000000
     2   1 0 1      1.500029      0.000000      0.000000
     2   0 2 0     -4.089079      0.000000      0.000000
     2   0 1 1      0.688808      0.000000      0.000000

 Total times  cpu:        4.2s     wall:        4.2s
