         Total DFT energy =     -382.308236226598
@ Step       Energy      Delta E   Gmax     Grms     Xrms     Xmax   Walltime
@ ---- ---------------- -------- -------- -------- -------- -------- --------
@    0    -382.30823623  0.0D+00  0.00075  0.00023  0.00000  0.00000      6.1
         Total DFT energy =     -382.308259402393
         Total DFT energy =     -382.308259735266
@    1    -382.30825974 -2.4D-05  0.00031  0.00009  0.00504  0.01705     11.2
         Total DFT energy =     -382.308261345385

 Vector   41  Occ=0.000000D+00  E= 3.322342D-01  Symmetry=ag

 Vector   42  Occ=0.000000D+00  E= 3.407093D-01  Symmetry=bu

 Vector   43  Occ=0.000000D+00  E= 3.794398D-01  Symmetry=bu

 Vector   44  Occ=0.000000D+00  E= 3.814709D-01  Symmetry=ag

 Vector   45  Occ=0.000000D+00  E= 4.109949D-01  Symmetry=ag

 Vector   46  Occ=0.000000D+00  E= 4.119808D-01  Symmetry=bu

 Vector   47  Occ=0.000000D+00  E= 4.267657D-01  Symmetry=bu

 Vector   48  Occ=0.000000D+00  E= 4.396556D-01  Symmetry=ag

 Vector   49  Occ=0.000000D+00  E= 4.527008D-01  Symmetry=bu

 Vector   50  Occ=0.000000D+00  E= 4.782347D-01  Symmetry=ag

 Vector   51  Occ=0.000000D+00  E= 5.262514D-01  Symmetry=ag

 Vector   52  Occ=0.000000D+00  E= 5.458062D-01  Symmetry=bu

 Vector   53  Occ=0.000000D+00  E= 5.760079D-01  Symmetry=ag

 Vector   54  Occ=0.000000D+00  E= 5.994758D-01  Symmetry=bu

 Vector   55  Occ=0.000000D+00  E= 6.250337D-01  Symmetry=bu

 Vector   56  Occ=0.000000D+00  E= 6.396639D-01  Symmetry=ag

 Vector   57  Occ=0.000000D+00  E= 6.829618D-01  Symmetry=ag

 Vector   58  Occ=0.000000D+00  E= 7.172980D-01  Symmetry=bu

 Vector   59  Occ=0.000000D+00  E= 7.795874D-01  Symmetry=ag

 Vector   60  Occ=0.000000D+00  E= 7.946154D-01  Symmetry=bu

         Total DFT energy =   -382.308261345385
@    2    -382.30826135 -1.6D-06  0.00009  0.00002  0.00090  0.00250     14.3
         Total DFT energy =     -382.308261486912

                       DFT Final Molecular Orbital Analysis
                       ------------------------------------

 Vector    1  Occ=2.000000D+00  E=-1.002022D+01  Symmetry=bu

 Vector    2  Occ=2.000000D+00  E=-1.002018D+01  Symmetry=ag

 Vector    3  Occ=2.000000D+00  E=-1.000812D+01  Symmetry=bu

 Vector    4  Occ=2.000000D+00  E=-1.000812D+01  Symmetry=ag

 Vector    5  Occ=2.000000D+00  E=-1.000679D+01  Symmetry=bu

 Vector    6  Occ=2.000000D+00  E=-1.000679D+01  Symmetry=ag

 Vector    7  Occ=2.000000D+00  E=-1.000606D+01  Symmetry=bu

 Vector    8  Occ=2.000000D+00  E=-1.000592D+01  Symmetry=ag

 Vector    9  Occ=2.000000D+00  E=-9.992325D+00  Symmetry=bu

 Vector   10  Occ=2.000000D+00  E=-9.992325D+00  Symmetry=ag

 Vector   11  Occ=2.000000D+00  E=-8.095070D-01  Symmetry=ag

 Vector   12  Occ=2.000000D+00  E=-7.539865D-01  Symmetry=bu

 Vector   13  Occ=2.000000D+00  E=-7.179639D-01  Symmetry=ag

 Vector   14  Occ=2.000000D+00  E=-6.997869D-01  Symmetry=bu

 Vector   15  Occ=2.000000D+00  E=-6.675089D-01  Symmetry=bu

 Vector   16  Occ=2.000000D+00  E=-5.887091D-01  Symmetry=ag

 Vector   17  Occ=2.000000D+00  E=-5.589268D-01  Symmetry=ag

 Vector   18  Occ=2.000000D+00  E=-5.316620D-01  Symmetry=bu

 Vector   19  Occ=2.000000D+00  E=-5.101744D-01  Symmetry=ag

 Vector   20  Occ=2.000000D+00  E=-4.574373D-01  Symmetry=ag

 Vector   21  Occ=2.000000D+00  E=-4.393603D-01  Symmetry=bu

 Vector   22  Occ=2.000000D+00  E=-4.106186D-01  Symmetry=bu

 Vector   23  Occ=2.000000D+00  E=-3.979531D-01  Symmetry=bu

 Vector   24  Occ=2.000000D+00  E=-3.960675D-01  Symmetry=ag

 Vector   25  Occ=2.000000D+00  E=-3.739780D-01  Symmetry=bu

 Vector   26  Occ=2.000000D+00  E=-3.511460D-01  Symmetry=bu

 Vector   27  Occ=2.000000D+00  E=-3.472892D-01  Symmetry=ag

 Vector   28  Occ=2.000000D+00  E=-3.245066D-01  Symmetry=au

 Vector   29  Occ=2.000000D+00  E=-3.112490D-01  Symmetry=bu

 Vector   30  Occ=2.000000D+00  E=-2.928021D-01  Symmetry=ag

 Vector   31  Occ=2.000000D+00  E=-2.874565D-01  Symmetry=ag

 Vector   32  Occ=2.000000D+00  E=-2.635517D-01  Symmetry=bg

 Vector   33  Occ=2.000000D+00  E=-2.124447D-01  Symmetry=au

 Vector   34  Occ=2.000000D+00  E=-1.950571D-01  Symmetry=bg

 Vector   35  Occ=2.000000D+00  E=-1.530761D-01  Symmetry=bg

 Vector   36  Occ=0.000000D+00  E= 3.739915D-02  Symmetry=au

 Vector   37  Occ=0.000000D+00  E= 9.036383D-02  Symmetry=au

 Vector   38  Occ=0.000000D+00  E= 1.106076D-01  Symmetry=bg

 Vector   39  Occ=0.000000D+00  E= 1.822084D-01  Symmetry=au

 Vector   40  Occ=0.000000D+00  E= 2.725174D-01  Symmetry=bg

 Vector   41  Occ=0.000000D+00  E= 3.322390D-01  Symmetry=ag

 Vector   42  Occ=0.000000D+00  E= 3.407333D-01  Symmetry=bu

 Vector   43  Occ=0.000000D+00  E= 3.794058D-01  Symmetry=bu

 Vector   44  Occ=0.000000D+00  E= 3.814743D-01  Symmetry=ag

 Vector   45  Occ=0.000000D+00  E= 4.109921D-01  Symmetry=ag

 Vector   46  Occ=0.000000D+00  E= 4.119794D-01  Symmetry=bu

 Vector   47  Occ=0.000000D+00  E= 4.267645D-01  Symmetry=bu

 Vector   48  Occ=0.000000D+00  E= 4.396276D-01  Symmetry=ag

 Vector   49  Occ=0.000000D+00  E= 4.527199D-01  Symmetry=bu

 Vector   50  Occ=0.000000D+00  E= 4.782364D-01  Symmetry=ag

 Vector   51  Occ=0.000000D+00  E= 5.262409D-01  Symmetry=ag

 Vector   52  Occ=0.000000D+00  E= 5.457845D-01  Symmetry=bu

 Vector   53  Occ=0.000000D+00  E= 5.759991D-01  Symmetry=ag

 Vector   54  Occ=0.000000D+00  E= 5.994376D-01  Symmetry=bu

 Vector   55  Occ=0.000000D+00  E= 6.249996D-01  Symmetry=bu

 Vector   56  Occ=0.000000D+00  E= 6.396498D-01  Symmetry=ag

 Vector   57  Occ=0.000000D+00  E= 6.828579D-01  Symmetry=ag

 Vector   58  Occ=0.000000D+00  E= 7.172123D-01  Symmetry=bu

 Vector   59  Occ=0.000000D+00  E= 7.795297D-01  Symmetry=ag

 Vector   60  Occ=0.000000D+00  E= 7.945720D-01  Symmetry=bu

     Multipole analysis of the density
     ---------------------------------

     L   x y z        total         alpha         beta         nuclear
     -   - - -        -----         -----         ----         -------
     0   0 0 0     -0.000000    -35.000000    -35.000000     70.000000

     1   1 0 0      0.000000      0.000000      0.000000      0.000000
     1   0 1 0      0.000000      0.000000      0.000000      0.000000
     1   0 0 1      0.000000      0.000000      0.000000      0.000000

     2   2 0 0    -37.340482   -140.892737   -140.892737    244.444993
     2   1 1 0      0.052186      2.889411      2.889411     -5.726636
     2   1 0 1      0.000000      0.000000      0.000000      0.000000
     2   0 2 0    -37.703769   -768.223431   -768.223431   1498.743092
     2   0 1 1      0.000000      0.000000      0.000000      0.000000

         Total DFT energy =   -382.308261486912
@    3    -382.30826149 -1.4D-07  0.00002  0.00000  0.00020  0.00053     16.8
@    3    -382.30826149 -1.4D-07  0.00002  0.00000  0.00020  0.00053     16.8

 Output coordinates in angstroms (scale by  1.889725989 to convert to a.u.)

  No.       Tag          Charge          X              Y              Z
 ---- ---------------- ---------- -------------- -------------- --------------
    1 C                    6.0000     0.23508346     1.41622985     0.00000000
    2 C                    6.0000    -0.23508346    -1.41622985     0.00000000
    3 C                    6.0000     1.31391866     0.48912507     0.00000000
    4 C                    6.0000    -1.31391866    -0.48912507     0.00000000
    5 C                    6.0000     1.08691131    -0.89453920     0.00000000
    6 C                    6.0000    -1.08691131     0.89453920     0.00000000
    7 H                    1.0000     2.34428971     0.87038359     0.00000000
    8 H                    1.0000    -2.34428971    -0.87038359     0.00000000
    9 H                    1.0000     1.94344652    -1.58087860     0.00000000
   10 H                    1.0000    -1.94344652     1.58087860     0.00000000
   11 C                    6.0000    -0.53389105    -2.88364229     0.00000000
   12 C                    6.0000     0.53389105     2.88364229     0.00000000
   13 H                    1.0000    -1.60646118    -3.12967212     0.00000000
   14 H                    1.0000     1.60646118     3.12967212     0.00000000
   15 C                    6.0000     0.36353694    -3.88450778     0.00000000
   16 C                    6.0000    -0.36353694     3.88450778     0.00000000
   17 H                    1.0000     1.44535655    -3.70889738     0.00000000
   18 H                    1.0000    -1.44535655     3.70889738     0.00000000
   19 H                    1.0000     0.04482672    -4.93338197     0.00000000
   20 H                    1.0000    -0.04482672     4.93338197     0.00000000

 Total times  cpu:       16.7s     wall:       16.8s
