 Output coordinates in angstroms (scale by  1.889725989 to convert to a.u.)

  No.       Tag          Charge          X              Y              Z
 ---- ---------------- ---------- -------------- -------------- --------------
    1 C                    6.0000     0.27867948    -1.36683162     0.00000000
    2 C                    6.0000     1.32303041    -0.44173575     0.00000000
    3 C                    6.0000     1.04434506     0.92484978     0.00000000
    4 C                    6.0000    -0.27867948     1.36683162     0.00000000
    5 C                    6.0000    -1.32303041     0.44173575     0.00000000
    6 C                    6.0000    -1.04434506    -0.92484978     0.00000000
    7 H                    1.0000     2.36595443    -0.79037726     0.00000000
    8 H                    1.0000     1.86746094     1.65407997     0.00000000
    9 H                    1.0000    -2.36595443     0.79037726     0.00000000
   10 H                    1.0000    -1.86746094    -1.65407997     0.00000000
   11 C                    6.0000    -0.58659169     2.87589931     0.00000000
   12 C                    6.0000     0.36350188     3.80076420     0.00000000
   13 H                    1.0000    -1.65647768     3.12394312     0.00000000
   14 H                    1.0000     0.14429560     4.87693235     0.00000000
   15 H                    1.0000     1.43338788     3.55272039     0.00000000
   16 C                    6.0000     0.58659169    -2.87589931     0.00000000
   17 C                    6.0000    -0.36350188    -3.80076420     0.00000000
   18 H                    1.0000     1.65647768    -3.12394312     0.00000000
   19 H                    1.0000    -0.14429560    -4.87693235     0.00000000
   20 H                    1.0000    -1.43338788    -3.55272039     0.00000000

         Total DFT energy =     -382.300234057255
         Total DFT energy =     -382.299603286719
         Total DFT energy =     -382.296793668322
         Total DFT energy =     -382.293568835403
         Total DFT energy =     -382.291676982586
         Total DFT energy =     -382.291903643771
         Total DFT energy =     -382.293705399372
         Total DFT energy =     -382.295615610122
         Total DFT energy =     -382.296072748297
         Total DFT energy =     -382.294203245523
         Total DFT energy =     -382.290337129267
         Total DFT energy =     -382.286087743960
         Total DFT energy =     -382.283659115531
         Total DFT energy =     -382.284392727635
         Total DFT energy =     -382.287631040780
         Total DFT energy =     -382.291163197278
         Total DFT energy =     -382.292888459089
         Total DFT energy =     -382.292130112564
         Total DFT energy =     -382.289799520944
         Total DFT energy =     -382.287668224899
         Total DFT energy =     -382.287269914390
         Total DFT energy =     -382.289005628340
         Total DFT energy =     -382.291974095909
         Total DFT energy =     -382.294558312906
         Total DFT energy =     -382.295294980469
         Total DFT energy =     -382.293592953574
         Total DFT energy =     -382.290124463504
         Total DFT energy =     -382.286692504457
         Total DFT energy =     -382.285318130288
         Total DFT energy =     -382.286803410007
         Total DFT energy =     -382.289950640583
         Total DFT energy =     -382.292422583279
         Total DFT energy =     -382.292511423492
         Total DFT energy =     -382.290206119667
         Total DFT energy =     -382.286952955795
         Total DFT energy =     -382.284590954193
 Total times  cpu:      405.9s     wall:      406.5s
