         Total SCF energy =   -379.768961092935
@ Step       Energy      Delta E   Gmax     Grms     Xrms     Xmax   Walltime
@ ---- ---------------- -------- -------- -------- -------- -------- --------
@    0    -379.76896109  0.0D+00  0.04567  0.01110  0.00000  0.00000      4.4
         Total SCF energy =   -379.776274999441
         Total SCF energy =   -379.777871209459
@    1    -379.77787121 -8.9D-03  0.00420  0.00083  0.04325  0.11705     10.9
         Total SCF energy =   -379.777937728006
         Total SCF energy =   -379.777945528147

 Vector   36  Occ=0.000000D+00  E= 2.066171D-01  Symmetry=au

 Vector   37  Occ=0.000000D+00  E= 2.733630D-01  Symmetry=au

 Vector   38  Occ=0.000000D+00  E= 3.183161D-01  Symmetry=bg

 Vector   39  Occ=0.000000D+00  E= 4.059817D-01  Symmetry=au

 Vector   40  Occ=0.000000D+00  E= 5.376635D-01  Symmetry=bg

 Vector   41  Occ=0.000000D+00  E= 5.688888D-01  Symmetry=ag

 Vector   42  Occ=0.000000D+00  E= 5.832028D-01  Symmetry=bu

 Vector   43  Occ=0.000000D+00  E= 6.326188D-01  Symmetry=bu

 Vector   44  Occ=0.000000D+00  E= 6.355288D-01  Symmetry=ag

 Vector   45  Occ=0.000000D+00  E= 6.822893D-01  Symmetry=ag

@    2    -379.77794553 -7.4D-05  0.00118  0.00023  0.00440  0.01818     16.4
         Total SCF energy =   -379.777954498241

 Vector   11  Occ=2.000000D+00  E=-1.106654D+00  Symmetry=ag

 Vector   12  Occ=2.000000D+00  E=-1.031718D+00  Symmetry=bu

 Vector   13  Occ=2.000000D+00  E=-9.884358D-01  Symmetry=ag

 Vector   14  Occ=2.000000D+00  E=-9.609327D-01  Symmetry=bu

 Vector   15  Occ=2.000000D+00  E=-9.226878D-01  Symmetry=bu

 Vector   16  Occ=2.000000D+00  E=-8.064077D-01  Symmetry=ag

 Vector   17  Occ=2.000000D+00  E=-7.712747D-01  Symmetry=ag

 Vector   18  Occ=2.000000D+00  E=-7.329503D-01  Symmetry=bu

 Vector   19  Occ=2.000000D+00  E=-7.072298D-01  Symmetry=ag

 Vector   20  Occ=2.000000D+00  E=-6.391288D-01  Symmetry=ag

 Vector   21  Occ=2.000000D+00  E=-6.150849D-01  Symmetry=bu

 Vector   22  Occ=2.000000D+00  E=-5.776236D-01  Symmetry=bu

 Vector   23  Occ=2.000000D+00  E=-5.638139D-01  Symmetry=bu

 Vector   24  Occ=2.000000D+00  E=-5.628775D-01  Symmetry=ag

 Vector   25  Occ=2.000000D+00  E=-5.325184D-01  Symmetry=bu

 Vector   26  Occ=2.000000D+00  E=-5.074062D-01  Symmetry=bu

 Vector   27  Occ=2.000000D+00  E=-4.981039D-01  Symmetry=ag

 Vector   28  Occ=2.000000D+00  E=-4.772651D-01  Symmetry=au

 Vector   29  Occ=2.000000D+00  E=-4.486296D-01  Symmetry=bu

 Vector   30  Occ=2.000000D+00  E=-4.259534D-01  Symmetry=ag

 Vector   31  Occ=2.000000D+00  E=-4.181821D-01  Symmetry=ag

 Vector   32  Occ=2.000000D+00  E=-3.868371D-01  Symmetry=bg

 Vector   33  Occ=2.000000D+00  E=-3.269035D-01  Symmetry=au

 Vector   34  Occ=2.000000D+00  E=-2.855845D-01  Symmetry=bg

 Vector   35  Occ=2.000000D+00  E=-2.332358D-01  Symmetry=bg

 Vector   36  Occ=0.000000D+00  E= 2.069560D-01  Symmetry=au

 Vector   37  Occ=0.000000D+00  E= 2.731504D-01  Symmetry=au

 Vector   38  Occ=0.000000D+00  E= 3.186099D-01  Symmetry=bg

 Vector   39  Occ=0.000000D+00  E= 4.060612D-01  Symmetry=au

 Vector   40  Occ=0.000000D+00  E= 5.374968D-01  Symmetry=bg

 Vector   41  Occ=0.000000D+00  E= 5.684381D-01  Symmetry=ag

 Vector   42  Occ=0.000000D+00  E= 5.827520D-01  Symmetry=bu

 Vector   43  Occ=0.000000D+00  E= 6.323206D-01  Symmetry=bu

 Vector   44  Occ=0.000000D+00  E= 6.348883D-01  Symmetry=ag

 Vector   45  Occ=0.000000D+00  E= 6.824432D-01  Symmetry=ag

         Total SCF energy =   -379.777954498241
@    3    -379.77795450 -9.0D-06  0.00004  0.00002  0.00110  0.00242     19.0
         Total SCF energy =   -379.777954597878

 Vector   11  Occ=2.000000D+00  E=-1.106644D+00  Symmetry=ag

 Vector   12  Occ=2.000000D+00  E=-1.031708D+00  Symmetry=bu

 Vector   13  Occ=2.000000D+00  E=-9.884411D-01  Symmetry=ag

 Vector   14  Occ=2.000000D+00  E=-9.609295D-01  Symmetry=bu

 Vector   15  Occ=2.000000D+00  E=-9.226853D-01  Symmetry=bu

 Vector   16  Occ=2.000000D+00  E=-8.064075D-01  Symmetry=ag

 Vector   17  Occ=2.000000D+00  E=-7.712472D-01  Symmetry=ag

 Vector   18  Occ=2.000000D+00  E=-7.329705D-01  Symmetry=bu

 Vector   19  Occ=2.000000D+00  E=-7.072448D-01  Symmetry=ag

 Vector   20  Occ=2.000000D+00  E=-6.391358D-01  Symmetry=ag

 Vector   21  Occ=2.000000D+00  E=-6.150839D-01  Symmetry=bu

 Vector   22  Occ=2.000000D+00  E=-5.776103D-01  Symmetry=bu

 Vector   23  Occ=2.000000D+00  E=-5.638131D-01  Symmetry=bu

 Vector   24  Occ=2.000000D+00  E=-5.628889D-01  Symmetry=ag

 Vector   25  Occ=2.000000D+00  E=-5.324993D-01  Symmetry=bu

 Vector   26  Occ=2.000000D+00  E=-5.074036D-01  Symmetry=bu

 Vector   27  Occ=2.000000D+00  E=-4.981106D-01  Symmetry=ag

 Vector   28  Occ=2.000000D+00  E=-4.772562D-01  Symmetry=au

 Vector   29  Occ=2.000000D+00  E=-4.486540D-01  Symmetry=bu

 Vector   30  Occ=2.000000D+00  E=-4.259195D-01  Symmetry=ag

 Vector   31  Occ=2.000000D+00  E=-4.182021D-01  Symmetry=ag

 Vector   32  Occ=2.000000D+00  E=-3.868290D-01  Symmetry=bg

 Vector   33  Occ=2.000000D+00  E=-3.269088D-01  Symmetry=au

 Vector   34  Occ=2.000000D+00  E=-2.855874D-01  Symmetry=bg

 Vector   35  Occ=2.000000D+00  E=-2.332303D-01  Symmetry=bg

 Vector   36  Occ=0.000000D+00  E= 2.069473D-01  Symmetry=au

 Vector   37  Occ=0.000000D+00  E= 2.731784D-01  Symmetry=au

 Vector   38  Occ=0.000000D+00  E= 3.186015D-01  Symmetry=bg

 Vector   39  Occ=0.000000D+00  E= 4.060358D-01  Symmetry=au

 Vector   40  Occ=0.000000D+00  E= 5.374914D-01  Symmetry=bg

 Vector   41  Occ=0.000000D+00  E= 5.684305D-01  Symmetry=ag

 Vector   42  Occ=0.000000D+00  E= 5.827712D-01  Symmetry=bu

 Vector   43  Occ=0.000000D+00  E= 6.322706D-01  Symmetry=bu

 Vector   44  Occ=0.000000D+00  E= 6.349000D-01  Symmetry=ag

 Vector   45  Occ=0.000000D+00  E= 6.824547D-01  Symmetry=ag

       Multipole analysis of the density wrt the origin
       ------------------------------------------------

     L   x y z        total         open         nuclear
     -   - - -        -----         ----         -------
     0   0 0 0     -0.000000      0.000000     70.000000

     1   1 0 0     -0.000000      0.000000      0.000000
     1   0 1 0      0.000000      0.000000      0.000000
     1   0 0 1      0.000000      0.000000      0.000000

     2   2 0 0    -38.489242      0.000000    235.913180
     2   1 1 0      0.092975      0.000000     -4.471841
     2   1 0 1     -0.000000      0.000000      0.000000
     2   0 2 0    -39.167750      0.000000   1465.727644
     2   0 1 1      0.000000      0.000000      0.000000

         Total SCF energy =   -379.777954597878
@    4    -379.77795460 -1.0D-07  0.00002  0.00001  0.00020  0.00046     21.3
@    4    -379.77795460 -1.0D-07  0.00002  0.00001  0.00020  0.00046     21.3

 Output coordinates in angstroms (scale by  1.889725989 to convert to a.u.)

  No.       Tag          Charge          X              Y              Z
 ---- ---------------- ---------- -------------- -------------- --------------
    1 C                    6.0000     0.22791436     1.39288682     0.00000000
    2 C                    6.0000    -0.22791436    -1.39288682     0.00000000
    3 C                    6.0000     1.28919622     0.48588492     0.00000000
    4 C                    6.0000    -1.28919622    -0.48588492     0.00000000
    5 C                    6.0000     1.06903351    -0.87838949     0.00000000
    6 C                    6.0000    -1.06903351     0.87838949     0.00000000
    7 H                    1.0000     2.30488364     0.86056857     0.00000000
    8 H                    1.0000    -2.30488364    -0.86056857     0.00000000
    9 H                    1.0000     1.91771846    -1.54845933     0.00000000
   10 H                    1.0000    -1.91771846     1.54845933     0.00000000
   11 C                    6.0000    -0.52246137    -2.85975751     0.00000000
   12 C                    6.0000     0.52246137     2.85975751     0.00000000
   13 H                    1.0000    -1.57985434    -3.10026381     0.00000000
   14 H                    1.0000     1.57985434     3.10026381     0.00000000
   15 C                    6.0000     0.35270515    -3.83939296     0.00000000
   16 C                    6.0000    -0.35270515     3.83939296     0.00000000
   17 H                    1.0000     1.42081376    -3.67691614     0.00000000
   18 H                    1.0000    -1.42081376     3.67691614     0.00000000
   19 H                    1.0000     0.03744757    -4.87355368     0.00000000
   20 H                    1.0000    -0.03744757     4.87355368     0.00000000

 Total times  cpu:       21.2s     wall:       21.3s
