                               Psi4 1.3.1 release

  ==> Input File <==

--------------------------------------------------------------------------
molecule dvb {
    0 1
    C    -1.4152533224   0.2302217854   0.0000000000
    C     1.4152533224  -0.2302217854   0.0000000000
    C    -0.4951331558   1.3144608674   0.0000000000
    C     0.4951331558  -1.3144608674   0.0000000000
    C     0.8894090436   1.0909493743   0.0000000000
    C    -0.8894090436  -1.0909493743   0.0000000000
    H    -0.8795511985   2.3437343748   0.0000000000
    H     0.8795511985  -2.3437343748   0.0000000000
    H     1.5779041557   1.9450061275   0.0000000000
    H    -1.5779041557  -1.9450061275   0.0000000000
    C     2.8845844962  -0.5210893778   0.0000000000
    C    -2.8845844962   0.5210893778   0.0000000000
    H     3.1403356810  -1.5919605685   0.0000000000
    H    -3.1403356810   1.5919605685   0.0000000000
    C     3.8800428103   0.3822535424   0.0000000000
    C    -3.8800428103  -0.3822535424   0.0000000000
    H     3.6946765858   1.4624389570   0.0000000000
    H    -3.6946765858  -1.4624389570   0.0000000000
    H     4.9316453546   0.0711049543   0.0000000000
    H    -4.9316453546  -0.0711049543   0.0000000000
}

set {
    basis sto-3g
}

frequencies('scf', dertype='gradient')
--------------------------------------------------------------------------

    Molecular point group: c2h
  Charge       = 0
  Multiplicity = 1
  Basis Set: STO-3G
    Blend: STO-3G
  Basis Set: (STO-3G AUX)
    Blend: DEF2-SVP-JKFIT
  @DF-RHF Final Energy:  -379.77011151675680
    Total Energy =                       -379.7701115167567423
    Molecular point group: c2h
  Basis Set: STO-3G
    Blend: STO-3G
  Basis Set: (STO-3G AUX)
    Blend: DEF2-SVP-JKFIT
  Basis Set: STO-3G
    Blend: STO-3G
  Basis Set: (STO-3G AUX)
    Blend: DEF2-SVP-JKFIT
  @DF-RHF Final Energy:  -379.77011151735775
    Total Energy =                       -379.7701115173578046
  Basis Set: STO-3G
    Blend: STO-3G
  Basis Set: (STO-3G AUX)
    Blend: DEF2-SVP-JKFIT
  Basis Set: STO-3G
    Blend: STO-3G
  @DF-RHF Final Energy:  -379.77006017451072
    Total Energy =                       -379.7700601745107178
  @DF-RHF Final Energy:  -379.77016115821283
    Total Energy =                       -379.7701611582127725
  @DF-RHF Final Energy:  -379.77011854420607
    Total Energy =                       -379.7701185442060705
  @DF-RHF Final Energy:  -379.77010260763927
    Total Energy =                       -379.7701026076392736
  @DF-RHF Final Energy:  -379.77010451733167
    Total Energy =                       -379.7701045173316743
  @DF-RHF Final Energy:  -379.77011657205179
    Total Energy =                       -379.7701165720518475
  @DF-RHF Final Energy:  -379.77013970501110
    Total Energy =                       -379.7701397050111609
  @DF-RHF Final Energy:  -379.77008139700513
    Total Energy =                       -379.7700813970051286
  @DF-RHF Final Energy:  -379.77012193247833
    Total Energy =                       -379.7701219324783324
  @DF-RHF Final Energy:  -379.77009912554877
    Total Energy =                       -379.7700991255487679
  @DF-RHF Final Energy:  -379.77013829220402
    Total Energy =                       -379.7701382922040239
  @DF-RHF Final Energy:  -379.77008284784546
    Total Energy =                       -379.7700828478454014
  @DF-RHF Final Energy:  -379.77007455956476
    Total Energy =                       -379.7700745595648186
  @DF-RHF Final Energy:  -379.77014533257193
    Total Energy =                       -379.7701453325719285
  @DF-RHF Final Energy:  -379.77019855266764
    Total Energy =                       -379.7701985526675799
  @DF-RHF Final Energy:  -379.77001443510022
    Total Energy =                       -379.7700144351001654
  @DF-RHF Final Energy:  -379.77017805017027
    Total Energy =                       -379.7701780501702160
  @DF-RHF Final Energy:  -379.77003925869514
    Total Energy =                       -379.7700392586950784
  @DF-RHF Final Energy:  -379.77011087606184
    Total Energy =                       -379.7701108760618354
  @DF-RHF Final Energy:  -379.77011109963667
    Total Energy =                       -379.7701110996366651
  @DF-RHF Final Energy:  -379.77011045718081
    Total Energy =                       -379.7701104571808628
  @DF-RHF Final Energy:  -379.77011077084057
    Total Energy =                       -379.7701107708405743
  @DF-RHF Final Energy:  -379.77011074893926
    Total Energy =                       -379.7701107489392598
  @DF-RHF Final Energy:  -379.77011041830434
    Total Energy =                       -379.7701104183042844
  @DF-RHF Final Energy:  -379.77011071581381
    Total Energy =                       -379.7701107158137575
  @DF-RHF Final Energy:  -379.77011064726042
    Total Energy =                       -379.7701106472604806
  @DF-RHF Final Energy:  -379.77010999096143
    Total Energy =                       -379.7701099909613731
  @DF-RHF Final Energy:  -379.77010667132254
    Total Energy =                       -379.7701066713225373
  @DF-RHF Final Energy:  -379.77010874769257
    Total Energy =                       -379.7701087476925750
  @DF-RHF Final Energy:  -379.77010786298081
    Total Energy =                       -379.7701078629808080
  @DF-RHF Final Energy:  -379.77011027309692
    Total Energy =                       -379.7701102730968614
  @DF-RHF Final Energy:  -379.77010988618730
    Total Energy =                       -379.7701098861873561
  @DF-RHF Final Energy:  -379.77011029333630
    Total Energy =                       -379.7701102933363018
  @DF-RHF Final Energy:  -379.77010653484223
    Total Energy =                       -379.7701065348421707
  @DF-RHF Final Energy:  -379.77010770452654
    Total Energy =                       -379.7701077045264810
  @DF-RHF Final Energy:  -379.77010746179621
    Total Energy =                       -379.7701074617962149
  Basis Set: (STO-3G AUX)
    Blend: DEF2-SVP-JKFIT
  Basis Set: STO-3G
    Blend: STO-3G
  Basis Set: (STO-3G AUX)
    Blend: DEF2-SVP-JKFIT
  @DF-RHF Final Energy:  -379.77010836588215
    Total Energy =                       -379.7701083658821517
  Basis Set: STO-3G
    Blend: STO-3G
  Basis Set: (STO-3G AUX)
    Blend: DEF2-SVP-JKFIT
    Molecular point group: cs
  Charge       = 0
  Multiplicity = 1
  Basis Set: STO-3G
    Blend: STO-3G
  Basis Set: (STO-3G AUX)
    Blend: DEF2-SVP-JKFIT

    Orbital Energies [Eh]
    ---------------------

    Doubly Occupied:

       1Ap   -11.040747     2Ap   -11.040684     3Ap   -11.031789
       4Ap   -11.031707     5Ap   -11.029111     6Ap   -11.028980
       7Ap   -11.028768     8Ap   -11.028742     9Ap   -11.017696
      10Ap   -11.017571    11Ap    -1.090317    12Ap    -1.020272
      13Ap    -0.974940    14Ap    -0.950318    15Ap    -0.909651
      16Ap    -0.799896    17Ap    -0.762837    18Ap    -0.727642
      19Ap    -0.696780    20Ap    -0.628047    21Ap    -0.605675
      22Ap    -0.572947    23Ap    -0.553601    24Ap    -0.553162
      25Ap    -0.525353    26Ap    -0.496695    27Ap    -0.492528
       1App   -0.463721    28Ap    -0.446433    29Ap    -0.421659
      30Ap    -0.415628     2App   -0.376953     3App   -0.315119
       4App   -0.278352     5App   -0.222179

  @DF-RHF Final Energy:  -379.77010808323337

   => Energetics <=

    Nuclear Repulsion Energy =            445.9369848719726406
    One-Electron Energy =               -1400.2211890587693688
    Two-Electron Energy =                 574.5140961035633609
    Total Energy =                       -379.7701080832333673

  Dipole Moment: [D]
     X:    -0.0030      Y:    -0.0007      Z:     0.0000     Total:     0.0030

    Molecular point group: cs

    Geometry (in Angstrom), charge = 0, multiplicity = 1:

       Center              X                  Y                   Z               Mass
    ------------   -----------------  -----------------  -----------------  -----------------
         C           -1.415253322400     0.230221785400     0.000000000000    12.000000000000
         C            1.415253322400    -0.230221785400     0.000000000000    12.000000000000
         C           -0.495133155800     1.314460867400     0.000000000000    12.000000000000
         C            0.495133155800    -1.314460867400     0.000000000000    12.000000000000
         C            0.889409043600     1.090949374300     0.000000000000    12.000000000000
         C           -0.889409043600    -1.090949374300     0.000000000000    12.000000000000
         H           -0.879551198500     2.343734374800     0.000000000000     1.007825032230
         H            0.879551198500    -2.343734374800     0.000000000000     1.007825032230
         H            1.577904155700     1.945006127500     0.000000000000     1.007825032230
         H           -1.577904155700    -1.945006127500     0.000000000000     1.007825032230
         C            2.884584496200    -0.521089377800     0.000000000000    12.000000000000
         C           -2.884584496200     0.521089377800     0.000000000000    12.000000000000
         H            3.140335681000    -1.591960568500     0.000000000000     1.007825032230
         H           -3.140335681000     1.591960568500     0.000000000000     1.007825032230
         C            3.880042810300     0.382253542400     0.000000000000    12.000000000000
         C           -3.880042810300    -0.382253542400     0.000000000000    12.000000000000
         H            3.694676585800     1.461121159829     0.000000000000     1.007825032230
         H           -3.694676585800    -1.463756754171     0.000000000000     1.007825032230
         H            4.931645354600     0.072422751471     0.000000000000     1.007825032230
         H           -4.931645354600    -0.069787157129     0.000000000000     1.007825032230

  Basis Set: STO-3G
    Blend: STO-3G
  Basis Set: (STO-3G AUX)
    Blend: DEF2-SVP-JKFIT

  -Total Gradient:
     Atom            X                  Y                   Z
    ------   -----------------  -----------------  -----------------
       1       -0.024740891460     0.003892987048     0.000000000000
       2        0.024730075274    -0.003914953176     0.000000000000
       3       -0.002956250466     0.014283205399     0.000000000000
       4        0.002949276671    -0.014281024643     0.000000000000
       5        0.005584729229     0.013579389687     0.000000000000
       6       -0.005588654528    -0.013582961291     0.000000000000
       7       -0.005024148894     0.013072210248     0.000000000000
       8        0.005023391511    -0.013070949362     0.000000000000
       9        0.009848556002     0.009823296011     0.000000000000
      10       -0.009856590138    -0.009825277603     0.000000000000
      11       -0.032996683439    -0.017416403433     0.000000000000
      12        0.032789888717     0.017544320254     0.000000000000
      13        0.003244660089    -0.014096460109     0.000000000000
      14       -0.003231160069     0.014114217516     0.000000000000
      15        0.024099641064     0.021821755895     0.000000000000
      16       -0.023893569739    -0.020263639244     0.000000000000
      17       -0.003123413992     0.012401141404     0.000000000000
      18        0.003620695735    -0.014619732001     0.000000000000
      19        0.013019054906    -0.003634845026     0.000000000000
      20       -0.013498606474     0.004173722427     0.000000000000

  Vibration                       4                   5                   6
  Freq [cm^-1]                 64.6328             89.0963             137.2523
  Irrep                           Bg                  Ag                  Au
  Reduced mass [u]              4.8991              4.6751              4.5434
  Force const [mDyne/A]         0.0121              0.0219              0.0504

  Vibration                       7                   8                   9
  Freq [cm^-1]                 162.9283            247.5615            257.7068
  Irrep                           Bg                  Bu                  Bg
  Reduced mass [u]              3.8146              3.8635              3.0647
  Force const [mDyne/A]         0.0597              0.1395              0.1199

  Vibration                       10                  11                  12
  Freq [cm^-1]                 319.6154            339.5310            417.5217
  Irrep                           Au                  Ag                  Bg
  Reduced mass [u]              2.0580              3.7533              2.2340
  Force const [mDyne/A]         0.1239              0.2549              0.2294

  Vibration                       13                  14                  15
  Freq [cm^-1]                 452.2550            522.1305            546.2857
  Irrep                           Ag                  Au                  Bu
  Reduced mass [u]              4.5234              3.1775              3.4541
  Force const [mDyne/A]         0.5451              0.5104              0.6073

  Vibration                       16                  17                  18
  Freq [cm^-1]                 597.7292            663.7496            729.6145
  Irrep                           Au                  Ag                  Ag
  Reduced mass [u]              2.3270              2.9243              6.9157
  Force const [mDyne/A]         0.4898              0.7591              2.1691

  Vibration                       19                  20                  21
  Freq [cm^-1]                 791.3980            806.8237            861.5082
  Irrep                           Bg                  Bu                  Au
  Reduced mass [u]              1.9651              3.1516              1.4403
  Force const [mDyne/A]         0.7251              1.2087              0.6298

  Vibration                       22                  23                  24
  Freq [cm^-1]                 924.0173            937.5492            997.8309
  Irrep                           Ag                  Bg                  Bu
  Reduced mass [u]              4.6478              2.7117              6.8704
  Force const [mDyne/A]         2.3381              1.4044              4.0304

  Vibration                       25                  26                  27
  Freq [cm^-1]                1062.5290           1078.6913           1160.8907
  Irrep                           Au                  Bg                  Bu
  Reduced mass [u]              1.5075              1.2296              3.1653
  Force const [mDyne/A]         1.0028              0.8430              2.5133

  Vibration                       28                  29                  30
  Freq [cm^-1]                1181.6030           1181.6781           1197.5941
  Irrep                           Au                  Bg                  Bg
  Reduced mass [u]              1.3453              1.3453              1.2599
  Force const [mDyne/A]         1.1066              1.1068              1.0647

  Vibration                       31                  32                  33
  Freq [cm^-1]                1221.6180           1231.4760           1236.3354
  Irrep                           Au                  Ag                  Bu
  Reduced mass [u]              1.3118              1.5356              1.4640
  Force const [mDyne/A]         1.1534              1.3721              1.3184

  Vibration                       34                  35                  36
  Freq [cm^-1]                1280.8277           1281.0644           1328.2024
  Irrep                           Au                  Bg                  Bu
  Reduced mass [u]              1.0985              1.0992              1.6259
  Force const [mDyne/A]         1.0618              1.0629              1.6900

  Vibration                       37                  38                  39
  Freq [cm^-1]                1381.1582           1387.7002           1426.8936
  Irrep                           Ag                  Ag                  Bu
  Reduced mass [u]              2.6631              1.2921              1.9714
  Force const [mDyne/A]         2.9931              1.4660              2.3649

  Vibration                       40                  41                  42
  Freq [cm^-1]                1533.2698           1542.5298           1558.1676
  Irrep                           Ag                  Bu                  Ag
  Reduced mass [u]              1.4441              1.3671              1.3575
  Force const [mDyne/A]         2.0002              1.9165              1.9419

  Vibration                       43                  44                  45
  Freq [cm^-1]                1636.5698           1714.7145           1727.0672
  Irrep                           Bu                  Ag                  Bu
  Reduced mass [u]              2.1970              1.4026              1.3173
  Force const [mDyne/A]         3.4670              2.4297              2.3150

  Vibration                       46                  47                  48
  Freq [cm^-1]                1787.1315           1807.2663           1874.2608
  Irrep                           Bu                  Ag                  Ag
  Reduced mass [u]              2.1535              3.5292              4.5269
  Force const [mDyne/A]         4.0523              6.7917              9.3694

  Vibration                       49                  50                  51
  Freq [cm^-1]                1942.5851           1945.0249           3519.8296
  Irrep                           Ag                  Bu                  Bu
  Reduced mass [u]              2.9402              2.9541              1.0639
  Force const [mDyne/A]         6.5371              6.5845              7.7657

  Vibration                       52                  53                  54
  Freq [cm^-1]                3521.1146           3565.6211           3565.6536
  Irrep                           Ag                  Bu                  Ag
  Reduced mass [u]              1.0638              1.0994              1.0995
  Force const [mDyne/A]         7.7710              8.2356              8.2363

  Vibration                       55                  56                  57
  Freq [cm^-1]                3575.6053           3582.4402           3602.7424
  Irrep                           Bu                  Ag                  Bu
  Reduced mass [u]              1.0930              1.0945              1.0994
  Force const [mDyne/A]         8.2332              8.2762              8.4074

  Vibration                       58                  59                  60
  Freq [cm^-1]                3605.9264           3680.4626           3680.4929
  Irrep                           Ag                  Bu                  Ag
  Reduced mass [u]              1.0998              1.1198              1.1198
  Force const [mDyne/A]         8.4253              8.9370              8.9371

  ==> Thermochemistry Components <==

  Entropy, S
    Electronic S            0.000 [cal/(mol K)]        0.000 [J/(mol K)]       0.00000000 [mEh/K] (multiplicity = 1)
    Translational S        40.502 [cal/(mol K)]      169.460 [J/(mol K)]       0.06454379 [mEh/K] (mol. weight = 130.0783 [u], P = 101325.00 [Pa])
    Rotational S           28.143 [cal/(mol K)]      117.751 [J/(mol K)]       0.04484891 [mEh/K] (symmetry no. = 2)
    Vibrational S          24.770 [cal/(mol K)]      103.636 [J/(mol K)]       0.03947275 [mEh/K]
  Total S                  93.414 [cal/(mol K)]      390.846 [J/(mol K)]       0.14886545 [mEh/K]
  Correction S              0.000 [cal/(mol K)]        0.000 [J/(mol K)]       0.00000000 [mEh/K]

  Constant volume heat capacity, Cv
    Electronic Cv           0.000 [cal/(mol K)]        0.000 [J/(mol K)]       0.00000000 [mEh/K]
    Translational Cv        2.981 [cal/(mol K)]       12.472 [J/(mol K)]       0.00475022 [mEh/K]
    Rotational Cv           2.981 [cal/(mol K)]       12.472 [J/(mol K)]       0.00475022 [mEh/K]
    Vibrational Cv         28.706 [cal/(mol K)]      120.105 [J/(mol K)]       0.04574554 [mEh/K]
  Total Cv                 34.667 [cal/(mol K)]      145.048 [J/(mol K)]       0.05524597 [mEh/K]
  Correction Cv             0.000 [cal/(mol K)]        0.000 [J/(mol K)]       0.00000000 [mEh/K]

  Constant pressure heat capacity, Cp
    Electronic Cp           0.000 [cal/(mol K)]        0.000 [J/(mol K)]       0.00000000 [mEh/K]
    Translational Cp        4.968 [cal/(mol K)]       20.786 [J/(mol K)]       0.00791703 [mEh/K]
    Rotational Cp           2.981 [cal/(mol K)]       12.472 [J/(mol K)]       0.00475022 [mEh/K]
    Vibrational Cp         28.706 [cal/(mol K)]      120.105 [J/(mol K)]       0.04574554 [mEh/K]
  Total Cp                 36.655 [cal/(mol K)]      153.363 [J/(mol K)]       0.05841278 [mEh/K]
  Correction Cp             0.000 [cal/(mol K)]        0.000 [J/(mol K)]       0.00000000 [mEh/K]

  ==> Thermochemistry Energy Analysis <==

  Raw electronic energy, E0
  Total E0, Electronic energy at well bottom at 0 [K]                 -379.77011152 [Eh]

  Zero-point energy, ZPE_vib = Sum_i nu_i / 2
    Electronic ZPE          0.000 [kcal/mol]        0.000 [kJ/mol]       0.00000000 [Eh]
    Translational ZPE       0.000 [kcal/mol]        0.000 [kJ/mol]       0.00000000 [Eh]
    Rotational ZPE          0.000 [kcal/mol]        0.000 [kJ/mol]       0.00000000 [Eh]
    Vibrational ZPE       120.761 [kcal/mol]      505.264 [kJ/mol]       0.19244474 [Eh]       42236.738 [cm^-1]
  Correction ZPE          120.761 [kcal/mol]      505.264 [kJ/mol]       0.19244474 [Eh]       42236.738 [cm^-1]
  Total ZPE, Electronic energy at 0 [K]                               -379.57766678 [Eh]

  Thermal Energy, E (includes ZPE)
    Electronic E            0.000 [kcal/mol]        0.000 [kJ/mol]       0.00000000 [Eh]
    Translational E         0.889 [kcal/mol]        3.718 [kJ/mol]       0.00141628 [Eh]
    Rotational E            0.889 [kcal/mol]        3.718 [kJ/mol]       0.00141628 [Eh]
    Vibrational E         124.862 [kcal/mol]      522.421 [kJ/mol]       0.19897948 [Eh]
  Correction E            126.639 [kcal/mol]      529.857 [kJ/mol]       0.20181203 [Eh]
  Total E, Electronic energy at  298.15 [K]                           -379.56829949 [Eh]

  Enthalpy, H_trans = E_trans + k_B * T
    Electronic H            0.000 [kcal/mol]        0.000 [kJ/mol]       0.00000000 [Eh]
    Translational H         1.481 [kcal/mol]        6.197 [kJ/mol]       0.00236046 [Eh]
    Rotational H            0.889 [kcal/mol]        3.718 [kJ/mol]       0.00141628 [Eh]
    Vibrational H         124.862 [kcal/mol]      522.421 [kJ/mol]       0.19897948 [Eh]
  Correction H            127.231 [kcal/mol]      532.336 [kJ/mol]       0.20275622 [Eh]
  Total H, Enthalpy at  298.15 [K]                                    -379.56735530 [Eh]

  Gibbs free energy, G = H - T * S
    Electronic G            0.000 [kcal/mol]        0.000 [kJ/mol]       0.00000000 [Eh]
    Translational G       -10.594 [kcal/mol]      -44.327 [kJ/mol]      -0.01688327 [Eh]
    Rotational G           -7.502 [kcal/mol]      -31.389 [kJ/mol]      -0.01195543 [Eh]
    Vibrational G         117.476 [kcal/mol]      491.522 [kJ/mol]       0.18721068 [Eh]
  Correction G             99.380 [kcal/mol]      415.806 [kJ/mol]       0.15837198 [Eh]
  Total G, Free enthalpy at  298.15 [K]                               -379.61173954 [Eh]

*** Psi4 exiting successfully. Buy a developer a beer!
