 Q-Chem 4.2, Q-Chem, Inc., Pleasanton, CA (2014).
 Q-Chem 4.2.0 for Intel X86 Linux

User input:
--------------------------------------------------------------
$comment
Divinylbenzene cation, single point, UB3LYP/STO-3G
$end

$rem
jobtype = sp
method = b3lyp
basis = sto-3g
unrestricted = true
$end

$molecule
+1 2
C                  0.27867948   -1.36683162    0.00000000
C                  1.32303041   -0.44173575    0.00000000
C                  1.04434506    0.92484978    0.00000000
C                 -0.27867948    1.36683162    0.00000000
C                 -1.32303041    0.44173575    0.00000000
C                 -1.04434506   -0.92484978    0.00000000
H                  2.36595443   -0.79037726    0.00000000
H                  1.86746094    1.65407997    0.00000000
H                 -2.36595443    0.79037726    0.00000000
H                 -1.86746094   -1.65407997    0.00000000
C                 -0.58659169    2.87589931    0.00000000
C                  0.36350188    3.80076420    0.00000000
H                 -1.65647768    3.12394312    0.00000000
H                  0.14429560    4.87693235    0.00000000
H                  1.43338788    3.55272039    0.00000000
C                  0.58659169   -2.87589931    0.00000000
C                 -0.36350188   -3.80076420    0.00000000
H                  1.65647768   -3.12394312    0.00000000
H                 -0.14429560   -4.87693235    0.00000000
H                 -1.43338788   -3.55272039    0.00000000
$end
--------------------------------------------------------------

             Standard Nuclear Orientation (Angstroms)
    I     Atom           X                Y                Z
 ----------------------------------------------------------------
    1      C       1.3668132833     0.2787694006     0.0000000000
    2      C       0.4416487095     1.3230594681     0.0000000000
    3      C      -0.9249184834     1.0442842137     0.0000000000
    4      C      -1.3668132833    -0.2787694006     0.0000000000
    5      C      -0.4416487095    -1.3230594681     0.0000000000
    6      C       0.9249184834    -1.0442842137     0.0000000000
    7      H       0.7902216068     2.3660064222     0.0000000000
    8      H      -1.6542028230     1.8673521173     0.0000000000
    9      H      -0.7902216068    -2.3660064222     0.0000000000
   10      H       1.6542028230    -1.8673521173     0.0000000000
   11      C      -2.8758607131    -0.5867808885     0.0000000000
   12      C      -3.8007881058     0.3632518344     0.0000000000
   13      H      -3.1238341368    -1.6566831945     0.0000000000
   14      H      -4.8769418324     0.1439747559     0.0000000000
   15      H      -3.5528146821     1.4331541504     0.0000000000
   16      C       2.8758607131     0.5867808885     0.0000000000
   17      C       3.8007881058    -0.3632518344     0.0000000000
   18      H       3.1238341368     1.6566831945     0.0000000000
   19      H       4.8769418324    -0.1439747559     0.0000000000
   20      H       3.5528146821    -1.4331541504     0.0000000000
 ----------------------------------------------------------------

    9    -382.0654734330      8.52E-06 Convergence criterion met
 Total energy in the final basis set = -382.0654734330

             Orbital Energies (a.u.) and Symmetries
 --------------------------------------------------------------

 Alpha MOs, Unrestricted
 -- Occupied --
-10.254 -10.254 -10.222 -10.222 -10.220 -10.220 -10.219 -10.219
  1 Bu    1 Ag    2 Bu    2 Ag    3 Bu    3 Ag    4 Ag    4 Bu
-10.214 -10.214  -1.033  -0.965  -0.926  -0.906  -0.882  -0.785
  5 Ag    5 Bu    6 Ag    6 Bu    7 Ag    7 Bu    8 Bu    8 Ag
 -0.764  -0.723  -0.707  -0.657  -0.637  -0.603  -0.600  -0.590
  9 Ag    9 Bu   10 Ag   11 Ag   10 Bu   11 Bu   12 Bu   12 Ag
 -0.573  -0.558  -0.542  -0.540  -0.498  -0.497  -0.479  -0.475
 13 Bu   14 Bu    1 Au   13 Ag   15 Bu   14 Ag   15 Ag    1 Bg
 -0.422  -0.400  -0.377
  2 Au    2 Bg    3 Bg

 Beta MOs, Unrestricted
 -- Occupied --
-10.251 -10.251 -10.222 -10.222 -10.220 -10.220 -10.220 -10.220
  1 Bu    1 Ag    2 Bu    2 Ag    3 Bu    3 Ag    4 Bu    4 Ag
-10.210 -10.210  -1.026  -0.957  -0.918  -0.905  -0.870  -0.781
  5 Ag    5 Bu    6 Ag    6 Bu    7 Ag    7 Bu    8 Bu    8 Ag
 -0.759  -0.719  -0.704  -0.654  -0.635  -0.601  -0.597  -0.587
  9 Ag    9 Bu   10 Ag   11 Ag   10 Bu   11 Bu   12 Bu   12 Ag
 -0.572  -0.556  -0.538  -0.525  -0.496  -0.495  -0.478  -0.451
 13 Bu   14 Bu   13 Ag    1 Au   15 Bu   14 Ag   15 Ag    1 Bg
 -0.396  -0.393
  2 Bg    2 Au

          Ground-State Mulliken Net Atomic Charges

     Atom                 Charge (a.u.)    Spin (a.u.)
  --------------------------------------------------------
      1 C                     0.056220       0.213443
      2 C                    -0.041873       0.013451
      3 C                    -0.039779       0.039381
      4 C                     0.056217       0.213429
      5 C                    -0.041870       0.013453
      6 C                    -0.039779       0.039387
      7 H                     0.129099      -0.001058
      8 H                     0.123367      -0.002132
      9 H                     0.129095      -0.001058
     10 H                     0.123367      -0.002132
     11 C                    -0.036312      -0.027994
     12 C                    -0.081693       0.289572
     13 H                     0.127832       0.000387
     14 H                     0.141455      -0.012691
     15 H                     0.121676      -0.012360
     16 C                    -0.036310      -0.027948
     17 C                    -0.081680       0.289547
     18 H                     0.127835       0.000367
     19 H                     0.141460      -0.012645
     20 H                     0.121671      -0.012398
  --------------------------------------------------------
  Sum of atomic charges =     1.000000

                    Cartesian Multipole Moments
 -----------------------------------------------------------------
    Charge (ESU x 10^10)
                 4.8032
    Dipole Moment (Debye)
         X       0.0003      Y       0.0000      Z       0.0000
       Tot       0.0003
    Quadrupole Moments (Debye-Ang)
        XX     -10.5680     XY      -0.9202     YY     -43.0509
        XZ       0.0000     YZ       0.0000     ZZ     -56.4689

 Total job time:  4.72s(wall), 4.68s(cpu)
        *  Thank you very much for using Q-Chem.  Have a nice day.  *
