 Q-Chem 4.2, Q-Chem, Inc., Pleasanton, CA (2014).
 Q-Chem 4.2.0 for Intel X86 EM64T Linux

User input:
--------------------------------------------------------------
$rem
 method hf
 basis sto-3g
 scf_convergence 9
 thresh 12
 moprop 2
$end

$molecule
0 1
N     -0.0699826875    0.3321987191    0.2821283177
C      1.3728035449    0.0970713322   -0.0129587739
C      2.0969275417   -0.0523593054    1.3682652221
O      3.1382490088   -0.6563684788    1.5380162924
C      1.9529664597    1.3136139853   -0.7956021969
H      1.8442727348    2.2050605044   -0.1801631789
H      1.3455899915    1.4594935008   -1.6885689523
C      3.4053646872    1.1270611844   -1.1918075237
C      4.4845249667    1.6235038050   -0.5598918002
N      5.6509089647    1.2379326369   -1.2284610654
H      6.6009314349    1.4112351003   -0.9028629397
C      5.2921619642    0.4356274269   -2.3131617003
C      3.8942019475    0.3557998019   -2.3263315791
C      3.2659168792   -0.3832607567   -3.3431309548
H      2.1864306677   -0.4577058843   -3.3815918670
C      4.0381762333   -1.0087512639   -4.2870993776
H      3.5696890585   -1.5824763141   -5.0755609734
C      5.4445159165   -0.9194874753   -4.2519002882
H      6.0229926396   -1.4277973542   -5.0130007062
C      6.0869576238   -0.2024044961   -3.2767702726
H      7.1656650647   -0.1287762497   -3.2458650647
H      4.5457621618    2.2425310766    0.3253979653
H     -0.5159777859    0.7478905868   -0.5487661007
H      1.5420526570   -0.8143939718   -0.5935463196
H     -0.5302278747   -0.5823989653    0.4084507634
O      1.4575846656    0.5996887308    2.4093500287
H      0.5990015339    0.8842421241    2.0047830456
$end
--------------------------------------------------------------

             Standard Nuclear Orientation (Angstroms)
    I     Atom           X                Y                Z
 ----------------------------------------------------------------
    1      N      -3.2237900755     1.6982032804     0.3320979090
    2      C      -2.0540198459     0.8743176963    -0.0884297908
    3      C      -2.6309449222    -0.4126589414    -0.7705686296
    4      O      -2.0351429616    -1.0828787065    -1.5914330492
    5      C      -1.2085854302     0.4871540927     1.1623462703
    6      H      -1.8372133707    -0.0866852369     1.8411626985
    7      H      -0.9294203935     1.4062392370     1.6770559099
    8      C       0.0396142907    -0.3017212420     0.8146188155
    9      C       0.1963055961    -1.6362798068     0.8836183658
   10      N       1.4897994787    -1.9882064424     0.4847163255
   11      H       1.8303017402    -2.9412675924     0.3650366225
   12      C       2.1692423624    -0.8252733174     0.1174120345
   13      C       1.2949836004     0.2490715674     0.3230641420
   14      C       1.7442031789     1.5520588084     0.0487292613
   15      H       1.0919901294     2.4023008390     0.2037080564
   16      C       3.0204084682     1.7329764564    -0.4173910365
   17      H       3.3807531831     2.7296536164    -0.6344133384
   18      C       3.8822555005     0.6364996049    -0.6222239232
   19      H       4.8834323850     0.8165728496    -0.9930427075
   20      C       3.4760818753    -0.6455621359    -0.3592437477
   21      H       4.1336463932    -1.4905833842    -0.5126516629
   22      H      -0.5024396898    -2.4011609239     1.1956994901
   23      H      -2.9160901197     2.3708718064     1.0496874035
   24      H      -1.4113266807     1.3896768580    -0.8080453760
   25      H      -3.5221065468     2.2742800248    -0.4700334920
   26      O      -3.8990954460    -0.7574983126    -0.3339182130
   27      H      -4.1669536371     0.0196434982     0.2193562820
 ----------------------------------------------------------------

   20    -673.5905711126      7.72E-10 Convergence criterion met
 Total energy in the final basis set = -673.5905711126

                    Orbital Energies (a.u.)
 --------------------------------------------------------------

 Alpha MOs
 -- Occupied --
-20.269 -20.242 -15.390 -15.345 -11.148 -11.098 -11.068 -11.065
-11.063 -11.025 -11.025 -11.024 -11.016 -11.015 -11.012  -1.348
 -1.258  -1.220  -1.154  -1.075  -1.026  -0.959  -0.937  -0.913
 -0.838  -0.783  -0.749  -0.711  -0.693  -0.669  -0.648  -0.617
 -0.602  -0.598  -0.581  -0.556  -0.543  -0.537  -0.524  -0.518
 -0.498  -0.487  -0.479  -0.460  -0.445  -0.438  -0.417  -0.414
 -0.370  -0.329  -0.326  -0.307  -0.243  -0.226

          Ground-State Mulliken Net Atomic Charges

     Atom                 Charge (a.u.)
  ----------------------------------------
      1 N                    -0.405350
      2 C                     0.019228
      3 C                     0.298919
      4 O                    -0.260769
      5 C                    -0.106000
      6 H                     0.066640
      7 H                     0.060788
      8 C                    -0.035657
      9 C                     0.043391
     10 N                    -0.321558
     11 H                     0.216300
     12 C                     0.105706
     13 C                    -0.023661
     14 C                    -0.064892
     15 H                     0.055242
     16 C                    -0.075176
     17 H                     0.056995
     18 C                    -0.059357
     19 H                     0.060758
     20 C                    -0.082603
     21 H                     0.061584
     22 H                     0.077314
     23 H                     0.163263
     24 H                     0.065997
     25 H                     0.161111
     26 O                    -0.312238
     27 H                     0.234025
  ----------------------------------------
  Sum of atomic charges =    -0.000000

                    Cartesian Multipole Moments
 -----------------------------------------------------------------
    Charge (ESU x 10^10)
                -0.0000
    Dipole Moment (Debye)
         X       0.8365      Y       1.8681      Z       1.7777
       Tot       2.7110
    Quadrupole Moments (Debye-Ang)
        XX     -83.8906     XY     -13.8184     YY     -69.8933
        XZ      -4.5488     YZ      -4.1882     ZZ     -84.2722

 Total job time:  13.26s(wall), 13.25s(cpu)
        *  Thank you very much for using Q-Chem.  Have a nice day.  *
