============================== echo of input deck ==============================
echo

geometry units angstrom
N     -0.0699826875    0.3321987191    0.2821283177
C      1.3728035449    0.0970713322   -0.0129587739
C      2.0969275417   -0.0523593054    1.3682652221
O      3.1382490088   -0.6563684788    1.5380162924
C      1.9529664597    1.3136139853   -0.7956021969
H      1.8442727348    2.2050605044   -0.1801631789
H      1.3455899915    1.4594935008   -1.6885689523
C      3.4053646872    1.1270611844   -1.1918075237
C      4.4845249667    1.6235038050   -0.5598918002
N      5.6509089647    1.2379326369   -1.2284610654
H      6.6009314349    1.4112351003   -0.9028629397
C      5.2921619642    0.4356274269   -2.3131617003
C      3.8942019475    0.3557998019   -2.3263315791
C      3.2659168792   -0.3832607567   -3.3431309548
H      2.1864306677   -0.4577058843   -3.3815918670
C      4.0381762333   -1.0087512639   -4.2870993776
H      3.5696890585   -1.5824763141   -5.0755609734
C      5.4445159165   -0.9194874753   -4.2519002882
H      6.0229926396   -1.4277973542   -5.0130007062
C      6.0869576238   -0.2024044961   -3.2767702726
H      7.1656650647   -0.1287762497   -3.2458650647
H      4.5457621618    2.2425310766    0.3253979653
H     -0.5159777859    0.7478905868   -0.5487661007
H      1.5420526570   -0.8143939718   -0.5935463196
H     -0.5302278747   -0.5823989653    0.4084507634
O      1.4575846656    0.5996887308    2.4093500287
H      0.5990015339    0.8842421241    2.0047830456
end

basis
* library sto-3g
end

scf
  thresh 1.0e-9
end

property
  response 1 0.0
  convergence 1e-8
end

task scf property

================================================================================

 Output coordinates in angstroms (scale by  1.889725989 to convert to a.u.)

  No.       Tag          Charge          X              Y              Z
 ---- ---------------- ---------- -------------- -------------- --------------
    1 N                    7.0000    -1.74337224    -3.19764756     0.35029864
    2 C                    6.0000    -0.89933450    -2.04375922    -0.07412493
    3 C                    6.0000     0.38868372    -2.64542850    -0.73250775
    4 O                    8.0000     1.07680285    -2.06850908    -1.55204966
    5 C                    6.0000    -0.51724296    -1.18762511     1.17091973
    6 H                    1.0000     0.03987289    -1.81486864     1.86478132
    7 H                    1.0000    -1.43912015    -0.89042151     1.67030844
    8 C                    6.0000     0.29187247     0.04603787     0.81786294
    9 C                    6.0000     1.62734655     0.18671098     0.90200394
   10 N                    7.0000     2.00081094     1.47053794     0.49162082
   11 H                    1.0000     2.95958807     1.79744047     0.37994400
   12 C                    6.0000     0.85140542     2.15994744     0.10104427
   13 C                    6.0000    -0.23655193     1.30198638     0.30375031
   14 C                    6.0000    -1.53011041     1.76414745     0.00719136
   15 H                    1.0000    -2.39051942     1.12472843     0.15934741
   16 C                    6.0000    -1.68877477     3.03657541    -0.47701105
   17 H                    1.0000    -2.67793487     3.40672638    -0.71123939
   18 C                    6.0000    -0.57885818     3.88185739    -0.67846042
   19 H                    1.0000    -0.74140250     4.88048815    -1.06395239
   20 C                    6.0000     0.69447254     3.46285705    -0.39405668
   21 H                    1.0000     1.54971019     4.10771240    -0.54477540
   22 H                    1.0000     2.37921625    -0.51766316     1.23250621
   23 H                    1.0000    -2.42107454    -2.87247609     1.05533765
   24 H                    1.0000    -1.39728351    -1.40370449    -0.80820455
   25 H                    1.0000    -2.31302338    -3.49872331    -0.45538299
   26 O                    8.0000     0.71171917    -3.91224447    -0.27577049
   27 H                    1.0000    -0.07572370    -4.16328566     0.27078429

         Total SCF energy =   -673.590571112725

 Vector   16  Occ=2.000000D+00  E=-1.347680D+00

 Vector   17  Occ=2.000000D+00  E=-1.257839D+00

 Vector   18  Occ=2.000000D+00  E=-1.219988D+00

 Vector   19  Occ=2.000000D+00  E=-1.153790D+00

 Vector   20  Occ=2.000000D+00  E=-1.074547D+00

 Vector   21  Occ=2.000000D+00  E=-1.025525D+00

 Vector   22  Occ=2.000000D+00  E=-9.592735D-01

 Vector   23  Occ=2.000000D+00  E=-9.367758D-01

 Vector   24  Occ=2.000000D+00  E=-9.133381D-01

 Vector   25  Occ=2.000000D+00  E=-8.376413D-01

 Vector   26  Occ=2.000000D+00  E=-7.830515D-01

 Vector   27  Occ=2.000000D+00  E=-7.493745D-01

 Vector   28  Occ=2.000000D+00  E=-7.105980D-01

 Vector   29  Occ=2.000000D+00  E=-6.926341D-01

 Vector   30  Occ=2.000000D+00  E=-6.691635D-01

 Vector   31  Occ=2.000000D+00  E=-6.483890D-01

 Vector   32  Occ=2.000000D+00  E=-6.168923D-01

 Vector   33  Occ=2.000000D+00  E=-6.023242D-01

 Vector   34  Occ=2.000000D+00  E=-5.983567D-01

 Vector   35  Occ=2.000000D+00  E=-5.807631D-01

 Vector   36  Occ=2.000000D+00  E=-5.564603D-01

 Vector   37  Occ=2.000000D+00  E=-5.428143D-01

 Vector   38  Occ=2.000000D+00  E=-5.368602D-01

 Vector   39  Occ=2.000000D+00  E=-5.240885D-01

 Vector   40  Occ=2.000000D+00  E=-5.177421D-01

 Vector   41  Occ=2.000000D+00  E=-4.979350D-01

 Vector   42  Occ=2.000000D+00  E=-4.871602D-01

 Vector   43  Occ=2.000000D+00  E=-4.787739D-01

 Vector   44  Occ=2.000000D+00  E=-4.597271D-01

 Vector   45  Occ=2.000000D+00  E=-4.446253D-01

 Vector   46  Occ=2.000000D+00  E=-4.384767D-01

 Vector   47  Occ=2.000000D+00  E=-4.166885D-01

 Vector   48  Occ=2.000000D+00  E=-4.139122D-01

 Vector   49  Occ=2.000000D+00  E=-3.697146D-01

 Vector   50  Occ=2.000000D+00  E=-3.285250D-01

 Vector   51  Occ=2.000000D+00  E=-3.256203D-01

 Vector   52  Occ=2.000000D+00  E=-3.067447D-01

 Vector   53  Occ=2.000000D+00  E=-2.425861D-01

 Vector   54  Occ=2.000000D+00  E=-2.256687D-01

 Vector   55  Occ=0.000000D+00  E= 2.475766D-01

 Vector   56  Occ=0.000000D+00  E= 2.951862D-01

 Vector   57  Occ=0.000000D+00  E= 3.185100D-01

 Vector   58  Occ=0.000000D+00  E= 3.694396D-01

 Vector   59  Occ=0.000000D+00  E= 5.218495D-01

 Vector   60  Occ=0.000000D+00  E= 5.335973D-01

 Vector   61  Occ=0.000000D+00  E= 5.609849D-01

 Vector   62  Occ=0.000000D+00  E= 5.685727D-01

 Vector   63  Occ=0.000000D+00  E= 5.783672D-01

 Vector   64  Occ=0.000000D+00  E= 6.125769D-01

       Multipole analysis of the density wrt the origin
       ------------------------------------------------

     L   x y z        total         open         nuclear
     -   - - -        -----         ----         -------
     0   0 0 0     -0.000000      0.000000    108.000000

     1   1 0 0     -0.739470      0.000000      0.000000
     1   0 1 0      0.347113      0.000000      0.000000
     1   0 0 1      0.685796      0.000000     -0.000000

     2   2 0 0    -51.782214      0.000000    616.507479
     2   1 1 0     10.219140      0.000000     23.916645
     2   1 0 1      3.079620      0.000000      4.775778
     2   0 2 0    -62.714584      0.000000   2480.424813
     2   0 1 1     -3.291202      0.000000    -28.179774

 Total times  cpu:      105.7s     wall:      107.4s
