 Gaussian 16, Revision C.01,
 Gaussian 16:  ES64L-G16RevC.01  3-Jul-2019

 ----------------------------------------------------------------------
 #p SP PBE1PBE/STO-3G SCF=(DIIS) Symmetry=(Tight) SCRF=(IPCM, Solvent=T
 oluene) EmpiricalDispersion=(GD3BJ) Integral=(Ultrafine) Population=(R
 egular) Density=(Current)
 ----------------------------------------------------------------------

 water_Single_Point_Singlet_PBE0__GD3BJ__Toluene_Pople_Basis_Sets_STO_3
 G
 ----------------------------------------------------------------------
 Symbolic Z-matrix:
 Charge =  0 Multiplicity = 1

                         Standard orientation:
 ---------------------------------------------------------------------
 Center     Atomic      Atomic             Coordinates (Angstroms)
 Number     Number       Type             X           Y           Z
 ---------------------------------------------------------------------
      1          8           0        0.000000    0.000000    0.119160
      2          1           0       -0.000000    0.790650   -0.476640
      3          1           0       -0.000000   -0.790650   -0.476640
 ---------------------------------------------------------------------

 SCF Done:  E(RPBE1PBE) =  -75.2504609542     A.U. after    8 cycles
 SCF Done:  E(RPBE1PBE) =  -75.2744046969     A.U. after   10 cycles
 SCF Done:  E(RPBE1PBE) =  -75.2766265312     A.U. after    8 cycles
 SCF Done:  E(RPBE1PBE) =  -75.2768173043     A.U. after    7 cycles
 SCF Done:  E(RPBE1PBE) =  -75.2768335452     A.U. after    7 cycles
 SCF Done:  E(RPBE1PBE) =  -75.2768349310     A.U. after    5 cycles

 Unable to determine electronic state:  partially filled degenerate orbitals.
 Alpha  occ. eigenvalues --  -18.86079  -0.92286  -0.43228  -0.24977  -0.15708
 Alpha virt. eigenvalues --    0.38959   0.49351

 Mulliken charges:
               1
     1  O   -0.468180
     2  H    0.203823
     3  H    0.264357
 Sum of Mulliken charges =   0.00000

 Dipole moment (field-independent basis, Debye):
    X=             -0.0005    Y=             -0.2261    Z=             -2.0471  Tot=              2.0596
 Quadrupole moment (field-independent basis, Debye-Ang):
   XX=             -6.0663   YY=             -3.8610   ZZ=             -5.2436
   XY=              0.0001   XZ=              0.0001   YZ=              0.1019

 Normal termination of Gaussian 16 at Wed Jun 21 15:38:01 2023.
