 Gaussian 16, Revision C.01,
 Gaussian 16:  ES64L-G16RevC.01  3-Jul-2019

 ----------------------------------------------------------------------
 #p SP PBE1PBE/STO-3G SCF=(DIIS) Symmetry=(Tight) SCRF=(SMD, Solvent=To
 luene) EmpiricalDispersion=(GD3BJ) Integral=(Ultrafine) Population=(Re
 gular) Density=(Current)
 ----------------------------------------------------------------------

 water_Single_Point_Singlet_PBE0__GD3BJ__Toluene_Pople_Basis_Sets_STO_3
 G
 ----------------------------------------------------------------------
 Symbolic Z-matrix:
 Charge =  0 Multiplicity = 1

                         Standard orientation:
 ---------------------------------------------------------------------
 Center     Atomic      Atomic             Coordinates (Angstroms)
 Number     Number       Type             X           Y           Z
 ---------------------------------------------------------------------
      1          8           0        0.000000    0.000000    0.119160
      2          1           0       -0.000000    0.790650   -0.476640
      3          1           0       -0.000000   -0.790650   -0.476640
 ---------------------------------------------------------------------

 SCF Done:  E(RPBE1PBE) =  -75.2533789303     A.U. after    7 cycles

 The electronic state is 1-A1.
 Alpha  occ. eigenvalues --  -18.89391  -0.93898  -0.44195  -0.23993  -0.15137
 Alpha virt. eigenvalues --    0.34986   0.46550

 Mulliken charges:
               1
     1  O   -0.355200
     2  H    0.177600
     3  H    0.177600
 Sum of Mulliken charges =  -0.00000

 Dipole moment (field-independent basis, Debye):
    X=             -0.0000    Y=              0.0000    Z=             -1.6648  Tot=              1.6648
 Quadrupole moment (field-independent basis, Debye-Ang):
   XX=             -6.1192   YY=             -4.2680   ZZ=             -5.3954
   XY=              0.0000   XZ=              0.0000   YZ=              0.0000

 Normal termination of Gaussian 16 at Wed Jun 21 15:37:51 2023.
