 Gaussian 16, Revision C.01,
 Gaussian 16:  ES64L-G16RevC.01  3-Jul-2019

 ----------------------------------------------------------------------
 #p SP PBE1PBE/STO-3G SCF=(DIIS) Symmetry=(Tight) SCRF=(SCIPCM, Solvent
 =Toluene) EmpiricalDispersion=(GD3BJ) Integral=(Ultrafine) Population=
 (Regular) Density=(Current)
 ----------------------------------------------------------------------

 water_Single_Point_Singlet_PBE0__GD3BJ__Toluene_Pople_Basis_Sets_STO_3
 G
 ----------------------------------------------------------------------
 Symbolic Z-matrix:
 Charge =  0 Multiplicity = 1

                         Standard orientation:
 ---------------------------------------------------------------------
 Center     Atomic      Atomic             Coordinates (Angstroms)
 Number     Number       Type             X           Y           Z
 ---------------------------------------------------------------------
      1          8           0        0.000000    0.000000    0.119160
      2          1           0       -0.000000    0.790650   -0.476640
      3          1           0       -0.000000   -0.790650   -0.476640
 ---------------------------------------------------------------------

 SCF Done:  E(RPBE1PBE) =  -75.2532680004     A.U. after    8 cycles

 The electronic state is 1-A1.
 Alpha  occ. eigenvalues --  -18.89375  -0.93990  -0.44270  -0.24248  -0.15333
 Alpha virt. eigenvalues --    0.35053   0.46533

 Mulliken charges:
               1
     1  O   -0.361700
     2  H    0.180850
     3  H    0.180850
 Sum of Mulliken charges =   0.00000

 Dipole moment (field-independent basis, Debye):
    X=             -0.0000    Y=              0.0000    Z=             -1.6866  Tot=              1.6866
 Quadrupole moment (field-independent basis, Debye-Ang):
   XX=             -6.1161   YY=             -4.2445   ZZ=             -5.3867
   XY=              0.0000   XZ=              0.0000   YZ=              0.0000

 Normal termination of Gaussian 16 at Wed Jun 21 15:37:51 2023.
