 Output coordinates in angstroms (scale by  1.889725989 to convert to a.u.)

  No.       Tag          Charge          X              Y              Z
 ---- ---------------- ---------- -------------- -------------- --------------
    1 C                    6.0000     0.23680554     1.41416660     0.00000000
    2 C                    6.0000    -0.23680554    -1.41416660     0.00000000
    3 C                    6.0000     1.31675086     0.48901061     0.00000000
    4 C                    6.0000    -1.31675086    -0.48901061     0.00000000
    5 C                    6.0000     1.08679847    -0.89447642     0.00000000
    6 C                    6.0000    -1.08679847     0.89447642     0.00000000
    7 H                    1.0000     2.34780221     0.86863451     0.00000000
    8 H                    1.0000    -2.34780221    -0.86863451     0.00000000
    9 H                    1.0000     1.93764188    -1.58693865     0.00000000
   10 H                    1.0000    -1.93764188     1.58693865     0.00000000
   11 C                    6.0000    -0.53450789    -2.88212824     0.00000000
   12 C                    6.0000     0.53450789     2.88212824     0.00000000
   13 H                    1.0000    -1.60655769    -3.13289308     0.00000000
   14 H                    1.0000     1.60655769     3.13289308     0.00000000
   15 C                    6.0000     0.36419263    -3.88177971     0.00000000
   16 C                    6.0000    -0.36419263     3.88177971     0.00000000
   17 H                    1.0000     1.44522900    -3.70144241     0.00000000
   18 H                    1.0000    -1.44522900     3.70144241     0.00000000
   19 H                    1.0000     0.04815351    -4.93192286     0.00000000
   20 H                    1.0000    -0.04815351     4.93192286     0.00000000

         Total SCF energy =   -379.768962492197

 Vector   11  Occ=2.000000D+00  E=-1.090299D+00  Symmetry=ag

 Vector   12  Occ=2.000000D+00  E=-1.020254D+00  Symmetry=bu

 Vector   13  Occ=2.000000D+00  E=-9.749254D-01  Symmetry=ag

 Vector   14  Occ=2.000000D+00  E=-9.503033D-01  Symmetry=bu

 Vector   15  Occ=2.000000D+00  E=-9.096345D-01  Symmetry=bu

 Vector   16  Occ=2.000000D+00  E=-7.998830D-01  Symmetry=ag

 Vector   17  Occ=2.000000D+00  E=-7.628268D-01  Symmetry=ag

 Vector   18  Occ=2.000000D+00  E=-7.276317D-01  Symmetry=bu

 Vector   19  Occ=2.000000D+00  E=-6.967772D-01  Symmetry=ag

 Vector   20  Occ=2.000000D+00  E=-6.280522D-01  Symmetry=ag

 Vector   21  Occ=2.000000D+00  E=-6.056780D-01  Symmetry=bu

 Vector   22  Occ=2.000000D+00  E=-5.729426D-01  Symmetry=bu

 Vector   23  Occ=2.000000D+00  E=-5.536035D-01  Symmetry=bu

 Vector   24  Occ=2.000000D+00  E=-5.531658D-01  Symmetry=ag

 Vector   25  Occ=2.000000D+00  E=-5.253606D-01  Symmetry=bu

 Vector   26  Occ=2.000000D+00  E=-4.966990D-01  Symmetry=bu

 Vector   27  Occ=2.000000D+00  E=-4.925280D-01  Symmetry=ag

 Vector   28  Occ=2.000000D+00  E=-4.637308D-01  Symmetry=au

 Vector   29  Occ=2.000000D+00  E=-4.464302D-01  Symmetry=bu

 Vector   30  Occ=2.000000D+00  E=-4.216550D-01  Symmetry=ag

 Vector   31  Occ=2.000000D+00  E=-4.156220D-01  Symmetry=ag

 Vector   32  Occ=2.000000D+00  E=-3.769631D-01  Symmetry=bg

 Vector   33  Occ=2.000000D+00  E=-3.151268D-01  Symmetry=au

 Vector   34  Occ=2.000000D+00  E=-2.783651D-01  Symmetry=bg

 Vector   35  Occ=2.000000D+00  E=-2.221904D-01  Symmetry=bg

 Vector   36  Occ=0.000000D+00  E= 1.989924D-01  Symmetry=au

 Vector   37  Occ=0.000000D+00  E= 2.685138D-01  Symmetry=au

 Vector   38  Occ=0.000000D+00  E= 3.088252D-01  Symmetry=bg

 Vector   39  Occ=0.000000D+00  E= 3.970770D-01  Symmetry=au

 Vector   40  Occ=0.000000D+00  E= 5.217566D-01  Symmetry=bg

 Vector   41  Occ=0.000000D+00  E= 5.650160D-01  Symmetry=ag

 Vector   42  Occ=0.000000D+00  E= 5.755620D-01  Symmetry=bu

 Vector   43  Occ=0.000000D+00  E= 6.215596D-01  Symmetry=ag

 Vector   44  Occ=0.000000D+00  E= 6.258003D-01  Symmetry=bu

 Vector   45  Occ=0.000000D+00  E= 6.582325D-01  Symmetry=ag

       Multipole analysis of the density wrt the origin
       ------------------------------------------------

     L   x y z        total         open         nuclear
     -   - - -        -----         ----         -------
     0   0 0 0      0.000000      0.000000     70.000000

     1   1 0 0      0.000000      0.000000      0.000000
     1   0 1 0      0.000000      0.000000      0.000000
     1   0 0 1      0.000000      0.000000      0.000000

     2   2 0 0    -38.360868      0.000000    244.795872
     2   1 1 0      0.065434      0.000000     -5.631027
     2   1 0 1      0.000000      0.000000      0.000000
     2   0 2 0    -39.006222      0.000000   1496.963300
     2   0 1 1      0.000000      0.000000      0.000000

 Total times  cpu:        4.8s     wall:        6.4s
