 Output coordinates in angstroms (scale by  1.889725989 to convert to a.u.)

  No.       Tag          Charge          X              Y              Z
 ---- ---------------- ---------- -------------- -------------- --------------
    1 C                    6.0000    -1.41525332     0.23022179     0.00000000
    2 C                    6.0000     1.41525332    -0.23022179     0.00000000
    3 C                    6.0000    -0.49513316     1.31446087     0.00000000
    4 C                    6.0000     0.49513316    -1.31446087     0.00000000
    5 C                    6.0000     0.88940904     1.09094937     0.00000000
    6 C                    6.0000    -0.88940904    -1.09094937     0.00000000
    7 H                    1.0000    -0.87955120     2.34373437     0.00000000
    8 H                    1.0000     0.87955120    -2.34373437     0.00000000
    9 H                    1.0000     1.57790416     1.94500613     0.00000000
   10 H                    1.0000    -1.57790416    -1.94500613     0.00000000
   11 C                    6.0000     2.88458450    -0.52108938     0.00000000
   12 C                    6.0000    -2.88458450     0.52108938     0.00000000
   13 H                    1.0000     3.14033568    -1.59196057     0.00000000
   14 H                    1.0000    -3.14033568     1.59196057     0.00000000
   15 C                    6.0000     3.88004281     0.38225354     0.00000000
   16 C                    6.0000    -3.88004281    -0.38225354     0.00000000
   17 H                    1.0000     3.69467659     1.46243896     0.00000000
   18 H                    1.0000    -3.69467659    -1.46243896     0.00000000
   19 H                    1.0000     4.93164535     0.07110495     0.00000000
   20 H                    1.0000    -4.93164535    -0.07110495     0.00000000

         Total DFT energy =     -382.308236370753

                       DFT Final Molecular Orbital Analysis
                       ------------------------------------

 Vector    1  Occ=2.000000D+00  E=-1.002023D+01

 Vector    2  Occ=2.000000D+00  E=-1.002018D+01

 Vector    3  Occ=2.000000D+00  E=-1.000794D+01

 Vector    4  Occ=2.000000D+00  E=-1.000794D+01

 Vector    5  Occ=2.000000D+00  E=-1.000689D+01

 Vector    6  Occ=2.000000D+00  E=-1.000688D+01

 Vector    7  Occ=2.000000D+00  E=-1.000624D+01

 Vector    8  Occ=2.000000D+00  E=-1.000610D+01

 Vector    9  Occ=2.000000D+00  E=-9.992163D+00

 Vector   10  Occ=2.000000D+00  E=-9.992163D+00

 Vector   11  Occ=2.000000D+00  E=-8.094655D-01

 Vector   12  Occ=2.000000D+00  E=-7.539368D-01

 Vector   13  Occ=2.000000D+00  E=-7.178632D-01

 Vector   14  Occ=2.000000D+00  E=-6.999241D-01

 Vector   15  Occ=2.000000D+00  E=-6.673155D-01

 Vector   16  Occ=2.000000D+00  E=-5.885105D-01

 Vector   17  Occ=2.000000D+00  E=-5.591526D-01

 Vector   18  Occ=2.000000D+00  E=-5.314225D-01

 Vector   19  Occ=2.000000D+00  E=-5.099373D-01

 Vector   20  Occ=2.000000D+00  E=-4.576006D-01

 Vector   21  Occ=2.000000D+00  E=-4.391985D-01

 Vector   22  Occ=2.000000D+00  E=-4.110195D-01

 Vector   23  Occ=2.000000D+00  E=-3.976932D-01

 Vector   24  Occ=2.000000D+00  E=-3.959389D-01

 Vector   25  Occ=2.000000D+00  E=-3.744313D-01

 Vector   26  Occ=2.000000D+00  E=-3.509384D-01

 Vector   27  Occ=2.000000D+00  E=-3.470163D-01

 Vector   28  Occ=2.000000D+00  E=-3.244709D-01

 Vector   29  Occ=2.000000D+00  E=-3.110658D-01

 Vector   30  Occ=2.000000D+00  E=-2.929849D-01

 Vector   31  Occ=2.000000D+00  E=-2.874973D-01

 Vector   32  Occ=2.000000D+00  E=-2.634582D-01

 Vector   33  Occ=2.000000D+00  E=-2.123391D-01

 Vector   34  Occ=2.000000D+00  E=-1.951699D-01

 Vector   35  Occ=2.000000D+00  E=-1.529971D-01

 Vector   36  Occ=0.000000D+00  E= 3.750822D-02

 Vector   37  Occ=0.000000D+00  E= 9.011585D-02

 Vector   38  Occ=0.000000D+00  E= 1.107252D-01

 Vector   39  Occ=0.000000D+00  E= 1.821997D-01

 Vector   40  Occ=0.000000D+00  E= 2.723005D-01

 Vector   41  Occ=0.000000D+00  E= 3.324835D-01

 Vector   42  Occ=0.000000D+00  E= 3.406431D-01

 Vector   43  Occ=0.000000D+00  E= 3.795213D-01

 Vector   44  Occ=0.000000D+00  E= 3.812890D-01

 Vector   45  Occ=0.000000D+00  E= 4.103423D-01

 Vector   46  Occ=0.000000D+00  E= 4.112340D-01

 Vector   47  Occ=0.000000D+00  E= 4.257994D-01

 Vector   48  Occ=0.000000D+00  E= 4.393585D-01

 Vector   49  Occ=0.000000D+00  E= 4.537218D-01

 Vector   50  Occ=0.000000D+00  E= 4.783353D-01

 Vector   51  Occ=0.000000D+00  E= 5.255611D-01

 Vector   52  Occ=0.000000D+00  E= 5.463502D-01

 Vector   53  Occ=0.000000D+00  E= 5.764350D-01

 Vector   54  Occ=0.000000D+00  E= 5.984362D-01

 Vector   55  Occ=0.000000D+00  E= 6.248961D-01

 Vector   56  Occ=0.000000D+00  E= 6.398311D-01

 Vector   57  Occ=0.000000D+00  E= 6.828343D-01

 Vector   58  Occ=0.000000D+00  E= 7.173534D-01

 Vector   59  Occ=0.000000D+00  E= 7.790401D-01

 Vector   60  Occ=0.000000D+00  E= 7.942615D-01

     Multipole analysis of the density
     ---------------------------------

     L   x y z        total         alpha         beta         nuclear
     -   - - -        -----         -----         ----         -------
     0   0 0 0     -0.000000    -35.000000    -35.000000     70.000000

     1   1 0 0     -0.000000     -0.000000     -0.000000      0.000000
     1   0 1 0      0.000000      0.000000      0.000000      0.000000
     1   0 0 1      0.000000      0.000000      0.000000      0.000000

     2   2 0 0    -37.713141   -767.298456   -767.298456   1496.883771
     2   1 1 0     -0.067665     -5.762834     -5.762834     11.458002
     2   1 0 1      0.000000      0.000000      0.000000      0.000000
     2   0 2 0    -37.347828   -141.111615   -141.111615    244.875401
     2   0 1 1     -0.000000     -0.000000     -0.000000      0.000000

 Total times  cpu:       22.2s     wall:       22.3s
