 Output coordinates in angstroms (scale by  1.889725989 to convert to a.u.)

  No.       Tag          Charge          X              Y              Z
 ---- ---------------- ---------- -------------- -------------- --------------
    1 C                    6.0000    -1.41525332     0.23022179     0.00000000
    2 C                    6.0000     1.41525332    -0.23022179     0.00000000
    3 C                    6.0000    -0.49513316     1.31446087     0.00000000
    4 C                    6.0000     0.49513316    -1.31446087     0.00000000
    5 C                    6.0000     0.88940904     1.09094937     0.00000000
    6 C                    6.0000    -0.88940904    -1.09094937     0.00000000
    7 H                    1.0000    -0.87955120     2.34373437     0.00000000
    8 H                    1.0000     0.87955120    -2.34373437     0.00000000
    9 H                    1.0000     1.57790416     1.94500613     0.00000000
   10 H                    1.0000    -1.57790416    -1.94500613     0.00000000
   11 C                    6.0000     2.88458450    -0.52108938     0.00000000
   12 C                    6.0000    -2.88458450     0.52108938     0.00000000
   13 H                    1.0000     3.14033568    -1.59196057     0.00000000
   14 H                    1.0000    -3.14033568     1.59196057     0.00000000
   15 C                    6.0000     3.88004281     0.38225354     0.00000000
   16 C                    6.0000    -3.88004281    -0.38225354     0.00000000
   17 H                    1.0000     3.69467659     1.46243896     0.00000000
   18 H                    1.0000    -3.69467659    -1.46243896     0.00000000
   19 H                    1.0000     4.93164535     0.07110495     0.00000000
   20 H                    1.0000    -4.93164535    -0.07110495     0.00000000

         Total SCF energy =   -379.768962969477

 Vector    1  Occ=2.000000D+00  E=-1.104059D+01

 Vector    2  Occ=2.000000D+00  E=-1.104052D+01

 Vector    3  Occ=2.000000D+00  E=-1.103159D+01

 Vector    4  Occ=2.000000D+00  E=-1.103159D+01

 Vector    5  Occ=2.000000D+00  E=-1.102895D+01

 Vector    6  Occ=2.000000D+00  E=-1.102882D+01

 Vector    7  Occ=2.000000D+00  E=-1.102861D+01

 Vector    8  Occ=2.000000D+00  E=-1.102859D+01

 Vector    9  Occ=2.000000D+00  E=-1.101748D+01

 Vector   10  Occ=2.000000D+00  E=-1.101748D+01

 Vector   11  Occ=2.000000D+00  E=-1.090298D+00

 Vector   12  Occ=2.000000D+00  E=-1.020253D+00

 Vector   13  Occ=2.000000D+00  E=-9.749252D-01

 Vector   14  Occ=2.000000D+00  E=-9.503010D-01

 Vector   15  Occ=2.000000D+00  E=-9.096342D-01

 Vector   16  Occ=2.000000D+00  E=-7.998824D-01

 Vector   17  Occ=2.000000D+00  E=-7.628255D-01

 Vector   18  Occ=2.000000D+00  E=-7.276316D-01

 Vector   19  Occ=2.000000D+00  E=-6.967762D-01

 Vector   20  Occ=2.000000D+00  E=-6.280516D-01

 Vector   21  Occ=2.000000D+00  E=-6.056776D-01

 Vector   22  Occ=2.000000D+00  E=-5.729414D-01

 Vector   23  Occ=2.000000D+00  E=-5.536030D-01

 Vector   24  Occ=2.000000D+00  E=-5.531660D-01

 Vector   25  Occ=2.000000D+00  E=-5.253585D-01

 Vector   26  Occ=2.000000D+00  E=-4.966981D-01

 Vector   27  Occ=2.000000D+00  E=-4.925275D-01

 Vector   28  Occ=2.000000D+00  E=-4.637293D-01

 Vector   29  Occ=2.000000D+00  E=-4.464305D-01

 Vector   30  Occ=2.000000D+00  E=-4.216538D-01

 Vector   31  Occ=2.000000D+00  E=-4.156206D-01

 Vector   32  Occ=2.000000D+00  E=-3.769629D-01

 Vector   33  Occ=2.000000D+00  E=-3.151265D-01

 Vector   34  Occ=2.000000D+00  E=-2.783629D-01

 Vector   35  Occ=2.000000D+00  E=-2.221891D-01

 Vector   36  Occ=0.000000D+00  E= 1.989934D-01

 Vector   37  Occ=0.000000D+00  E= 2.685160D-01

 Vector   38  Occ=0.000000D+00  E= 3.088253D-01

 Vector   39  Occ=0.000000D+00  E= 3.970773D-01

 Vector   40  Occ=0.000000D+00  E= 5.217581D-01

 Vector   41  Occ=0.000000D+00  E= 5.650170D-01

 Vector   42  Occ=0.000000D+00  E= 5.755620D-01

 Vector   43  Occ=0.000000D+00  E= 6.215609D-01

 Vector   44  Occ=0.000000D+00  E= 6.258005D-01

 Vector   45  Occ=0.000000D+00  E= 6.582331D-01

 Vector   46  Occ=0.000000D+00  E= 6.593961D-01

 Vector   47  Occ=0.000000D+00  E= 6.771784D-01

 Vector   48  Occ=0.000000D+00  E= 6.941876D-01

 Vector   49  Occ=0.000000D+00  E= 7.067088D-01

 Vector   50  Occ=0.000000D+00  E= 7.401369D-01

 Vector   51  Occ=0.000000D+00  E= 8.022260D-01

 Vector   52  Occ=0.000000D+00  E= 8.256562D-01

 Vector   53  Occ=0.000000D+00  E= 8.606162D-01

 Vector   54  Occ=0.000000D+00  E= 8.877588D-01

 Vector   55  Occ=0.000000D+00  E= 9.210089D-01

 Vector   56  Occ=0.000000D+00  E= 9.399496D-01

 Vector   57  Occ=0.000000D+00  E= 9.902862D-01

 Vector   58  Occ=0.000000D+00  E= 1.027265D+00

 Vector   59  Occ=0.000000D+00  E= 1.107702D+00

 Vector   60  Occ=0.000000D+00  E= 1.124937D+00

       Multipole analysis of the density wrt the origin
       ------------------------------------------------

     L   x y z        total         open         nuclear
     -   - - -        -----         ----         -------
     0   0 0 0     -0.000000      0.000000     70.000000

     1   1 0 0     -0.000000      0.000000      0.000000
     1   0 1 0     -0.000000      0.000000      0.000000
     1   0 0 1     -0.000000      0.000000      0.000000

     2   2 0 0    -39.004925      0.000000   1496.883771
     2   1 1 0     -0.068316      0.000000     11.458002
     2   1 0 1      0.000000      0.000000      0.000000
     2   0 2 0    -38.361473      0.000000    244.875401
     2   0 1 1      0.000000      0.000000      0.000000

 Total times  cpu:        2.8s     wall:        2.9s
