 Output coordinates in angstroms (scale by  1.889725989 to convert to a.u.)

  No.       Tag          Charge          X              Y              Z
 ---- ---------------- ---------- -------------- -------------- --------------
    1 C                    6.0000    -1.41525332     0.23022179     0.00000000
    2 C                    6.0000     1.41525332    -0.23022179     0.00000000
    3 C                    6.0000    -0.49513316     1.31446087     0.00000000
    4 C                    6.0000     0.49513316    -1.31446087     0.00000000
    5 C                    6.0000     0.88940904     1.09094937     0.00000000
    6 C                    6.0000    -0.88940904    -1.09094937     0.00000000
    7 H                    1.0000    -0.87955120     2.34373437     0.00000000
    8 H                    1.0000     0.87955120    -2.34373437     0.00000000
    9 H                    1.0000     1.57790416     1.94500613     0.00000000
   10 H                    1.0000    -1.57790416    -1.94500613     0.00000000
   11 C                    6.0000     2.88458450    -0.52108938     0.00000000
   12 C                    6.0000    -2.88458450     0.52108938     0.00000000
   13 H                    1.0000     3.14033568    -1.59196057     0.00000000
   14 H                    1.0000    -3.14033568     1.59196057     0.00000000
   15 C                    6.0000     3.88004281     0.38225354     0.00000000
   16 C                    6.0000    -3.88004281    -0.38225354     0.00000000
   17 H                    1.0000     3.69467659     1.46243896     0.00000000
   18 H                    1.0000    -3.69467659    -1.46243896     0.00000000
   19 H                    1.0000     4.93164535     0.07110495     0.00000000
   20 H                    1.0000    -4.93164535    -0.07110495     0.00000000

         Total DFT energy =     -382.081438966854

                    DFT Final Alpha Molecular Orbital Analysis
                    ------------------------------------------

 Vector    1  Occ=1.000000D+00  E=-1.025361D+01

 Vector   41  Occ=0.000000D+00  E= 1.397098D-01

 Vector   42  Occ=0.000000D+00  E= 1.490023D-01

 Vector   43  Occ=0.000000D+00  E= 1.792478D-01

 Vector   44  Occ=0.000000D+00  E= 1.964607D-01

 Vector   45  Occ=0.000000D+00  E= 2.146785D-01

 Vector   46  Occ=0.000000D+00  E= 2.203562D-01

 Vector   47  Occ=0.000000D+00  E= 2.396751D-01

 Vector   48  Occ=0.000000D+00  E= 2.405839D-01

 Vector   49  Occ=0.000000D+00  E= 2.630201D-01

 Vector   50  Occ=0.000000D+00  E= 2.853150D-01

 Vector   51  Occ=0.000000D+00  E= 3.197838D-01

 Vector   52  Occ=0.000000D+00  E= 3.442761D-01

 Vector   53  Occ=0.000000D+00  E= 3.799990D-01

 Vector   54  Occ=0.000000D+00  E= 3.978243D-01

 Vector   55  Occ=0.000000D+00  E= 4.254743D-01

 Vector   56  Occ=0.000000D+00  E= 4.381741D-01

 Vector   57  Occ=0.000000D+00  E= 4.777543D-01

 Vector   58  Occ=0.000000D+00  E= 5.060471D-01

 Vector   59  Occ=0.000000D+00  E= 5.676005D-01

 Vector   60  Occ=0.000000D+00  E= 5.817431D-01

 Vector    1  Occ=1.000000D+00  E=-1.025063D+01

 Vector    2  Occ=1.000000D+00  E=-1.025059D+01

 Vector    3  Occ=1.000000D+00  E=-1.021921D+01

 Vector    4  Occ=1.000000D+00  E=-1.021918D+01

 Vector    5  Occ=1.000000D+00  E=-1.021842D+01

 Vector    6  Occ=1.000000D+00  E=-1.021842D+01

 Vector    7  Occ=1.000000D+00  E=-1.021787D+01

 Vector    8  Occ=1.000000D+00  E=-1.021776D+01

 Vector    9  Occ=1.000000D+00  E=-1.021079D+01

 Vector   10  Occ=1.000000D+00  E=-1.021079D+01

 Vector   11  Occ=1.000000D+00  E=-1.014703D+00

 Vector   12  Occ=1.000000D+00  E=-9.544769D-01

 Vector   13  Occ=1.000000D+00  E=-9.137369D-01

 Vector   14  Occ=1.000000D+00  E=-8.975980D-01

 Vector   15  Occ=1.000000D+00  E=-8.645205D-01

 Vector   16  Occ=1.000000D+00  E=-7.818198D-01

 Vector   17  Occ=1.000000D+00  E=-7.558015D-01

 Vector   18  Occ=1.000000D+00  E=-7.185951D-01

 Vector   19  Occ=1.000000D+00  E=-7.004629D-01

 Vector   20  Occ=1.000000D+00  E=-6.482752D-01

 Vector   21  Occ=1.000000D+00  E=-6.329027D-01

 Vector   22  Occ=1.000000D+00  E=-6.012783D-01

 Vector   23  Occ=1.000000D+00  E=-5.932525D-01

 Vector   24  Occ=1.000000D+00  E=-5.849151D-01

 Vector   25  Occ=1.000000D+00  E=-5.681443D-01

 Vector   26  Occ=1.000000D+00  E=-5.492900D-01

 Vector   27  Occ=1.000000D+00  E=-5.351472D-01

 Vector   28  Occ=1.000000D+00  E=-5.173612D-01

 Vector   29  Occ=1.000000D+00  E=-4.994313D-01

 Vector   30  Occ=1.000000D+00  E=-4.917912D-01

 Vector   31  Occ=1.000000D+00  E=-4.811395D-01

 Vector   32  Occ=1.000000D+00  E=-4.507912D-01

 Vector   33  Occ=1.000000D+00  E=-3.911641D-01

 Vector   34  Occ=1.000000D+00  E=-3.887357D-01

 Vector   35  Occ=0.000000D+00  E=-3.004744D-01

 Vector   36  Occ=0.000000D+00  E=-1.470199D-01

 Vector   37  Occ=0.000000D+00  E=-1.034329D-01

 Vector   38  Occ=0.000000D+00  E=-7.365154D-02

 Vector   39  Occ=0.000000D+00  E=-8.258916D-03

 Vector   40  Occ=0.000000D+00  E= 7.613962D-02

 Vector   41  Occ=0.000000D+00  E= 1.421636D-01

 Vector   42  Occ=0.000000D+00  E= 1.508779D-01

 Vector   43  Occ=0.000000D+00  E= 1.811485D-01

 Vector   44  Occ=0.000000D+00  E= 1.979375D-01

 Vector   45  Occ=0.000000D+00  E= 2.203480D-01

 Vector   46  Occ=0.000000D+00  E= 2.257445D-01

 Vector   47  Occ=0.000000D+00  E= 2.420325D-01

 Vector   48  Occ=0.000000D+00  E= 2.463279D-01

 Vector   49  Occ=0.000000D+00  E= 2.700337D-01

 Vector   50  Occ=0.000000D+00  E= 2.904638D-01

 Vector   51  Occ=0.000000D+00  E= 3.235123D-01

 Vector   52  Occ=0.000000D+00  E= 3.477288D-01

 Vector   53  Occ=0.000000D+00  E= 3.814955D-01

 Vector   54  Occ=0.000000D+00  E= 4.000049D-01

 Vector   55  Occ=0.000000D+00  E= 4.297953D-01

 Vector   56  Occ=0.000000D+00  E= 4.407404D-01

 Vector   57  Occ=0.000000D+00  E= 4.815331D-01

 Vector   58  Occ=0.000000D+00  E= 5.114629D-01

 Vector   59  Occ=0.000000D+00  E= 5.713402D-01

 Vector   60  Occ=0.000000D+00  E= 5.848844D-01

     Multipole analysis of the density
     ---------------------------------

     L   x y z        total         alpha         beta         nuclear
     -   - - -        -----         -----         ----         -------
     0   0 0 0      1.000000    -35.000000    -34.000000     70.000000

     1   1 0 0     -0.000068     -0.000015     -0.000053      0.000000
     1   0 1 0      0.000004      0.000001      0.000003      0.000000
     1   0 0 1     -0.000000     -0.000000     -0.000000      0.000000

     2   2 0 0     -6.470984   -767.712914   -735.641840   1496.883771
     2   1 1 0      0.791626     -6.744726     -3.921649     11.458002
     2   1 0 1     -0.000000     -0.000000     -0.000000      0.000000
     2   0 2 0    -32.081535   -138.952557   -138.004380    244.875401
     2   0 1 1      0.000000      0.000000     -0.000000      0.000000

 Total times  cpu:      290.8s     wall:      299.0s
