                         Program Version 4.0.0.2 - RELEASE -
|  1> ! TightSCF B3LYP STO-3G RIJCOSX AutoAux
|  2>
|  3> % rocis
|  4>     NRoots  5
|  5>     MaxCore 2500
|  6>     MaxDim  50
|  7>     DoRI    true
|  8>     SOC     true
|  9>     DoHigherMult true
| 10>     DoDFTCIS   	true
| 11>     DoQuad      true
| 12>     DFTCIS_c = 0.21, 0.49, 0.29
| 13>     OrbWin = 0, 0, 0, 2000
| 14> end
| 15>
| 16> * xyz 0 2
| 17>     B   0   0   0
| 18> *
| 19>
| 20>                          ****END OF INPUT****

CARTESIAN COORDINATES (ANGSTROEM)
---------------------------------
  B      0.000000    0.000000    0.000000

 Total Charge           Charge          ....    0
 Multiplicity           Mult            ....    2
 Number of Electrons    NEL             ....    5
 Basis Dimension        Dim             ....    5

ORBITAL ENERGIES
----------------
                 SPIN UP ORBITALS
  NO   OCC          E(Eh)            E(eV)
   0   1.0000      -6.415010      -174.5613
   1   1.0000      -0.257616        -7.0101
   2   1.0000      -0.033891        -0.9222
   3   0.0000       0.082228         2.2375
   4   0.0000       0.082547         2.2462

                 SPIN DOWN ORBITALS
  NO   OCC          E(Eh)            E(eV)
   0   1.0000      -6.403206      -174.2401
   1   1.0000      -0.202477        -5.5097
   2   0.0000       0.102461         2.7881
   3   0.0000       0.102486         2.7888
   4   0.0000       0.154329         4.1995

MULLIKEN ATOMIC CHARGES AND SPIN POPULATIONS
--------------------------------------------
   0 B :    0.000000    1.000000
Sum of atomic charges         :    0.0000000

LOEWDIN ATOMIC CHARGES AND SPIN POPULATIONS
-------------------------------------------
   0 B :    0.000000    1.000000

-------------------------------------------------------------------------------
SPIN ORBIT CORRECTED ABSORPTION SPECTRUM VIA TRANSITION ELECTRIC DIPOLE MOMENTS
-------------------------------------------------------------------------------
States    Energy  Wavelength   fosc         T2         TX        TY        TZ
          (cm-1)    (nm)                  (au**2)     (au)      (au)      (au)
-------------------------------------------------------------------------------
 0  1       0.0      0.0   0.000000000   0.00000   0.00000   0.00000   0.00000
 0  2 1390003.8      7.2   0.000000003   0.00000   0.00002   0.00003   0.00000
 0  3 1390003.8      7.2   0.000000234   0.00000   0.00014   0.00030   0.00000
 0  4 1390004.2      7.2   0.000000086   0.00000   0.00012   0.00016   0.00000
 0  5 1390004.2      7.2   0.000000000   0.00000   0.00000   0.00001   0.00000
 0  6 1390074.3      7.2   0.000000072   0.00000   0.00008   0.00017   0.00001
 0  7 1390074.3      7.2   0.000000024   0.00000   0.00000   0.00001   0.00011
 0  8 1390074.7      7.2   0.000000173   0.00000   0.00012   0.00026   0.00000
 0  9 1390074.7      7.2   0.000000001   0.00000   0.00001   0.00002   0.00000
 0 10 1392648.8      7.2   0.000000064   0.00000   0.00000   0.00000   0.00017
 0 11 1392648.8      7.2   0.033791749   0.01598   0.05495   0.11383   0.00000
 0 12 1397419.4      7.2   0.067485939   0.03180   0.00000   0.00000   0.17832
 0 13 1397419.4      7.2   0.000009361   0.00000   0.00189   0.00092   0.00001
 0 14 1397457.3      7.2   0.067489620   0.03180   0.16059   0.07752   0.00000
 0 15 1397457.3      7.2   0.000009377   0.00000   0.00000   0.00000   0.00210
 0 16 1405100.2      7.1   0.000322469   0.00015   0.00000   0.00000   0.01229
 0 17 1405100.2      7.1   0.000000014   0.00000   0.00007   0.00004   0.00000
 1  2 1390003.8      7.2   0.000000234   0.00000   0.00014   0.00030   0.00000
 1  3 1390003.8      7.2   0.000000003   0.00000   0.00002   0.00003   0.00000
 1  4 1390004.2      7.2   0.000000000   0.00000   0.00000   0.00001   0.00000
 1  5 1390004.2      7.2   0.000000086   0.00000   0.00012   0.00016   0.00000
 1  6 1390074.3      7.2   0.000000024   0.00000   0.00000   0.00001   0.00011
 1  7 1390074.3      7.2   0.000000072   0.00000   0.00008   0.00017   0.00001
 1  8 1390074.7      7.2   0.000000001   0.00000   0.00001   0.00002   0.00000
 1  9 1390074.7      7.2   0.000000173   0.00000   0.00012   0.00026   0.00000
 1 10 1392648.8      7.2   0.033791749   0.01598   0.05495   0.11383   0.00000
 1 11 1392648.8      7.2   0.000000064   0.00000   0.00000   0.00000   0.00017
 1 12 1397419.4      7.2   0.000009361   0.00000   0.00189   0.00092   0.00001
 1 13 1397419.4      7.2   0.067485939   0.03180   0.00000   0.00000   0.17832
 1 14 1397457.3      7.2   0.000009377   0.00000   0.00000   0.00000   0.00210
 1 15 1397457.3      7.2   0.067489620   0.03180   0.16059   0.07752   0.00000
 1 16 1405100.2      7.1   0.000000014   0.00000   0.00007   0.00004   0.00000
 1 17 1405100.2      7.1   0.000322469   0.00015   0.00000   0.00000   0.01229

FINAL SINGLE POINT ENERGY       -21.135942982776

DIPOLE MOMENT
-------------
                                X             Y             Z
Electronic contribution:     -0.00000      -0.00000       0.00000
Nuclear contribution   :      0.00000       0.00000       0.00000
                        -----------------------------------------
Total Dipole Moment    :     -0.00000      -0.00000       0.00000
                        -----------------------------------------
Magnitude (a.u.)       :      0.00000
Magnitude (Debye)      :      0.00000

                             ****ORCA TERMINATED NORMALLY****
TOTAL RUN TIME: 0 days 0 hours 0 minutes 9 seconds 383 msec
