                         Program Version 2.9.0 -  RELEASE  -
|  1> # Scan dihedral restricted B3LYP/sto-3g calc
|  2> ! RKS STO-3G B3LYP UseSym Opt
|  3>
|  4> %output
|  5>  PrintLevel Normal
|  6> end
|  7>
|  8> % geom
|  9>   Scan
| 10>     D 4 3 10 11 = -180.0, 180.0, 12
| 11>   end
| 12> end
| 13>
| 14> * xyz 0 1
| 15> C          1.43509       -0.04780       -0.00010
| 16> C          0.73780        1.19228       -0.00002
| 17> C         -0.66368        1.24151       -0.00001
| 18> C         -1.43515        0.04767        0.00006
| 19> C         -0.73787       -1.19242       -0.00002
| 20> C          0.66362       -1.24165       -0.00002
| 21> H          1.31386        2.12801        0.00015
| 22> H         -1.16822        2.21645        0.00014
| 23> H         -1.31393       -2.12815        0.00006
| 24> H          1.16816       -2.21659        0.00006
| 25> C         -2.93303        0.04344       -0.00002
| 26> C         -3.73731        1.12067        0.00003
| 27> H         -3.38578       -0.95970       -0.00014
| 28> H         -4.82871        1.01517       -0.00009
| 29> H         -3.35133        2.14657       -0.00007
| 30> C          2.93296       -0.04343        0.00003
| 31> C          3.73745       -1.12051       -0.00004
| 32> H          3.38556        0.95978       -0.00003
| 33> H          4.82882       -1.01477       -0.00007
| 34> H          3.35169       -2.14649        0.00009
| 35> *
| 36>
| 37>
| 38>                          ****END OF INPUT****
 Total Charge           Charge          ....    0
 Multiplicity           Mult            ....    1
 Number of Electrons    NEL             ....   70
FINAL SINGLE POINT ENERGY     -382.050784656
                    ***********************HURRAY********************
FINAL SINGLE POINT ENERGY     -382.050784743
FINAL SINGLE POINT ENERGY     -382.036347106
FINAL SINGLE POINT ENERGY     -382.048082541
FINAL SINGLE POINT ENERGY     -382.049089218
FINAL SINGLE POINT ENERGY     -382.049174702
FINAL SINGLE POINT ENERGY     -382.049192346
FINAL SINGLE POINT ENERGY     -382.049196718
                    ***********************HURRAY********************
FINAL SINGLE POINT ENERGY     -382.049197034
FINAL SINGLE POINT ENERGY     -382.030696377
FINAL SINGLE POINT ENERGY     -382.049213305
FINAL SINGLE POINT ENERGY     -382.049214044
FINAL SINGLE POINT ENERGY     -382.049214091
FINAL SINGLE POINT ENERGY     -382.037950698
FINAL SINGLE POINT ENERGY     -382.049635549
FINAL SINGLE POINT ENERGY     -382.050707655
FINAL SINGLE POINT ENERGY     -382.050779919
FINAL SINGLE POINT ENERGY     -382.050788290
FINAL SINGLE POINT ENERGY     -382.050790358

CARTESIAN COORDINATES (ANGSTROEM)
---------------------------------
  C     -0.086232    0.166926    1.423642
  C      0.561465    1.133640    0.605045
  C      0.647927    0.972331   -0.785427
  C      0.088326   -0.168044   -1.423319
  C     -0.559109   -1.134918   -0.604679
  C     -0.645618   -0.973576    0.785780
  H      1.001245    2.023339    1.076710
  H      1.155022    1.738633   -1.386063
  H     -0.998590   -2.024775   -1.076323
  H     -1.152290   -1.740078    1.386522
  C      0.152411   -0.389430   -2.903398
  C      0.723368    0.420999   -3.811676
  H     -0.326999   -1.319089   -3.245806
  H      0.717657    0.171271   -4.879294
  H      1.217245    1.360831   -3.538603
  C     -0.150641    0.388531    2.903711
  C     -0.727866   -0.418527    3.811011
  H      0.333180    1.315640    3.246797
  H     -0.722980   -0.168286    4.878509
  H     -1.227075   -1.355242    3.537050

 Multiplicity           Mult            ....    1
 Number of Electrons    NEL             ....   70
 Basis Dimension        Dim             ....   60

ORBITAL ENERGIES
----------------

  NO   OCC          E(Eh)            E(eV)
   0   2.0000     -10.016259      -272.5563
   1   2.0000     -10.016212      -272.5550
   2   2.0000     -10.004123      -272.2260
   3   2.0000     -10.004122      -272.2260
   4   2.0000     -10.002803      -272.1901
   5   2.0000     -10.002799      -272.1900
   6   2.0000     -10.002078      -272.1704
   7   2.0000     -10.001939      -272.1666
   8   2.0000      -9.988407      -271.7984
   9   2.0000      -9.988406      -271.7984
  10   2.0000      -0.805723       -21.9248
  11   2.0000      -0.750235       -20.4149
  12   2.0000      -0.714224       -19.4350
  13   2.0000      -0.696029       -18.9399
  14   2.0000      -0.663785       -18.0625
  15   2.0000      -0.584992       -15.9185
  16   2.0000      -0.555196       -15.1076
  17   2.0000      -0.527994       -14.3674
  18   2.0000      -0.506460       -13.7815
  19   2.0000      -0.453688       -12.3455
  20   2.0000      -0.435630       -11.8541
  21   2.0000      -0.406916       -11.0728
  22   2.0000      -0.394197       -10.7267
  23   2.0000      -0.392398       -10.6777
  24   2.0000      -0.370244       -10.0749
  25   2.0000      -0.347436        -9.4542
  26   2.0000      -0.343543        -9.3483
  27   2.0000      -0.320786        -8.7290
  28   2.0000      -0.307524        -8.3681
  29   2.0000      -0.289095        -7.8667
  30   2.0000      -0.283720        -7.7204
  31   2.0000      -0.259853        -7.0710
  32   2.0000      -0.208789        -5.6814
  33   2.0000      -0.191415        -5.2087
  34   2.0000      -0.149438        -4.0664
  35   0.0000       0.041033         1.1166
  36   0.0000       0.093924         2.5558
  37   0.0000       0.114187         3.1072
  38   0.0000       0.185756         5.0547
  39   0.0000       0.276024         7.5110

MULLIKEN ATOMIC CHARGES
-----------------------
   0 C :   -0.004394
   1 C :   -0.076373
   2 C :   -0.077010
   3 C :   -0.004396
   4 C :   -0.076382
   5 C :   -0.077009
   6 H :    0.077403
   7 H :    0.079012
   8 H :    0.077408
   9 H :    0.079010
  10 C :   -0.076273
  11 C :   -0.154386
  12 H :    0.076717
  13 H :    0.079087
  14 H :    0.076212
  15 C :   -0.076269
  16 C :   -0.154396
  17 H :    0.076724
  18 H :    0.079090
  19 H :    0.076224
Sum of atomic charges:   -0.0000000

LOEWDIN ATOMIC CHARGES
----------------------
   0 C :    0.003765
   1 C :   -0.043749
   2 C :   -0.044156
   3 C :    0.003763
   4 C :   -0.043756
   5 C :   -0.044157
   6 H :    0.041745
   7 H :    0.043533
   8 H :    0.041749
   9 H :    0.043533
  10 C :   -0.038871
  11 C :   -0.091285
  12 H :    0.041047
  13 H :    0.044860
  14 H :    0.043107
  15 C :   -0.038866
  16 C :   -0.091293
  17 H :    0.041053
  18 H :    0.044863
  19 H :    0.043118

  Mayer bond orders larger than 0.1
B(  0-C ,  1-C ) :   1.3626 B(  0-C ,  5-C ) :   1.3654 B(  0-C , 15-C ) :   1.0664
B(  1-C ,  2-C ) :   1.4652 B(  1-C ,  6-H ) :   0.9614 B(  2-C ,  3-C ) :   1.3655
B(  2-C ,  5-C ) :   0.1019 B(  2-C ,  7-H ) :   0.9596 B(  3-C ,  4-C ) :   1.3625
B(  3-C , 10-C ) :   1.0665 B(  4-C ,  5-C ) :   1.4653 B(  4-C ,  8-H ) :   0.9614
B(  5-C ,  9-H ) :   0.9596 B( 10-C , 11-C ) :   1.9012 B( 10-C , 12-H ) :   0.9591
B( 11-C , 13-H ) :   0.9693 B( 11-C , 14-H ) :   0.9665 B( 15-C , 16-C ) :   1.9012
B( 15-C , 17-H ) :   0.9591 B( 16-C , 18-H ) :   0.9693 B( 16-C , 19-H ) :   0.9665

FINAL SINGLE POINT ENERGY     -382.050790712

DIPOLE MOMENT
-------------
                                X             Y             Z
Electronic contribution:      0.00636      -0.00356       0.00109
Nuclear contribution   :     -0.00659       0.00373      -0.00103
                        -----------------------------------------
Total Dipole Moment    :     -0.00023       0.00017       0.00006
                        -----------------------------------------
Magnitude (a.u.)       :      0.00029
Magnitude (Debye)      :      0.00074

                             ****ORCA TERMINATED NORMALLY****
TOTAL RUN TIME: 0 days 0 hours 54 minutes 26 seconds 264 msec
