                         Program Version 5.0.3 -  RELEASE  -
|  1> ! EOM-CCSD NOCOSX NORI cc-pVDZ TightSCF UseSym
|  2> %Pal NProcs 8 end
|  3> %MaxCore 12500
|  4> %SCF
|  5>     AutoTRAH    True
|  6>     CNVDamp     False
|  7>     CNVZerner   False
|  8>     end
|  9> %mdci
| 10>     NRoots      5
| 11>     DoTriplet   false
| 12>     STEOMSOC    false
| 13>     DoDbfilter  false
| 14>     end
| 15> *xyz 0 1
| 16> C            -1.41525000     0.23022000     0.00000000
| 17> C             1.41525000    -0.23022000     0.00000000
| 18> C            -0.49513000     1.31446000     0.00000000
| 19> C             0.49513000    -1.31446000     0.00000000
| 20> C             0.88941000     1.09095000     0.00000000
| 21> C            -0.88941000    -1.09095000     0.00000000
| 22> H            -0.87955000     2.34373000     0.00000000
| 23> H             0.87955000    -2.34373000     0.00000000
| 24> H             1.57790000     1.94501000     0.00000000
| 25> H            -1.57790000    -1.94501000     0.00000000
| 26> C             2.88458000    -0.52109000     0.00000000
| 27> C            -2.88458000     0.52109000     0.00000000
| 28> H             3.14034000    -1.59196000     0.00000000
| 29> H            -3.14034000     1.59196000     0.00000000
| 30> C             3.88004000     0.38225000     0.00000000
| 31> C            -3.88004000    -0.38225000     0.00000000
| 32> H             3.69468000     1.46244000     0.00000000
| 33> H            -3.69468000    -1.46244000     0.00000000
| 34> H             4.93165000     0.07110000     0.00000000
| 35> H            -4.93165000    -0.07110000     0.00000000
| 36> **                         ****END OF INPUT****

CARTESIAN COORDINATES (ANGSTROEM)
---------------------------------
  C     -1.415250    0.230220    0.000000
  C      1.415250   -0.230220    0.000000
  C     -0.495130    1.314460    0.000000
  C      0.495130   -1.314460    0.000000
  C      0.889410    1.090950    0.000000
  C     -0.889410   -1.090950    0.000000
  H     -0.879550    2.343730    0.000000
  H      0.879550   -2.343730    0.000000
  H      1.577900    1.945010    0.000000
  H     -1.577900   -1.945010    0.000000
  C      2.884580   -0.521090    0.000000
  C     -2.884580    0.521090    0.000000
  H      3.140340   -1.591960    0.000000
  H     -3.140340    1.591960    0.000000
  C      3.880040    0.382250    0.000000
  C     -3.880040   -0.382250    0.000000
  H      3.694680    1.462440    0.000000
  H     -3.694680   -1.462440    0.000000
  H      4.931650    0.071100    0.000000
  H     -4.931650   -0.071100    0.000000

 Total Charge           Charge          ....    0
 Multiplicity           Mult            ....    1
 Number of Electrons    NEL             ....   70
 Basis Dimension        Dim             ....  190

ORBITAL ENERGIES
----------------

  NO   OCC          E(Eh)            E(eV)    Irrep
   0   2.0000     -11.256894      -306.3157    1-Bu
   1   2.0000     -11.256882      -306.3153    1-Ag
   2   2.0000     -11.251820      -306.1776    2-Bu
   3   2.0000     -11.251820      -306.1776    2-Ag
   4   2.0000     -11.249087      -306.1032    3-Bu
   5   2.0000     -11.249010      -306.1011    3-Ag
   6   2.0000     -11.247606      -306.0629    4-Ag
   7   2.0000     -11.247571      -306.0620    4-Bu
   8   2.0000     -11.240108      -305.8589    5-Bu
   9   2.0000     -11.240108      -305.8589    5-Ag
  10   2.0000      -1.153820       -31.3971    6-Ag
  11   2.0000      -1.082959       -29.4688    6-Bu
  12   2.0000      -1.035582       -28.1796    7-Ag
  13   2.0000      -1.013674       -27.5835    7-Bu
  14   2.0000      -0.972313       -26.4580    8-Bu
  15   2.0000      -0.860398       -23.4126    8-Ag
  16   2.0000      -0.823414       -22.4062    9-Ag
  17   2.0000      -0.783001       -21.3065    9-Bu
  18   2.0000      -0.750938       -20.4341   10-Ag
  19   2.0000      -0.679117       -18.4797   11-Ag
  20   2.0000      -0.659858       -17.9556   10-Bu
  21   2.0000      -0.629467       -17.1287   11-Bu
  22   2.0000      -0.610225       -16.6051   12-Bu
  23   2.0000      -0.606277       -16.4976   12-Ag
  24   2.0000      -0.581240       -15.8164   13-Bu
  25   2.0000      -0.563024       -15.3207   14-Bu
  26   2.0000      -0.545707       -14.8495   13-Ag
  27   2.0000      -0.512320       -13.9409    1-Au
  28   2.0000      -0.501048       -13.6342   15-Bu
  29   2.0000      -0.490572       -13.3491   14-Ag
  30   2.0000      -0.479860       -13.0576   15-Ag
  31   2.0000      -0.430184       -11.7059    1-Bg
  32   2.0000      -0.371693       -10.1143    2-Au
  33   2.0000      -0.337860        -9.1936    2-Bg
  34   2.0000      -0.284623        -7.7450    3-Bg
  35   0.0000       0.076464         2.0807    3-Au
  36   0.0000       0.131564         3.5800    4-Au
  37   0.0000       0.169698         4.6177    4-Bg
  38   0.0000       0.188371         5.1258   16-Ag
  39   0.0000       0.191847         5.2204   16-Bu

E(0)                                       ...   -384.493309986
E(0)                                       ...   -384.493309986
E(CORR)                                    ...     -1.386826942
E(TOT)                                     ...   -385.880136928

MULLIKEN ATOMIC CHARGES
-----------------------
   0 C :   -0.088727
   1 C :   -0.088727
   2 C :    0.019452
   3 C :    0.019452
   4 C :   -0.004753
   5 C :   -0.004753
   6 H :    0.012523
   7 H :    0.012523
   8 H :    0.013858
   9 H :    0.013858
  10 C :   -0.036877
  11 C :   -0.036877
  12 H :    0.013965
  13 H :    0.013965
  14 C :   -0.016797
  15 C :   -0.016797
  16 H :    0.039336
  17 H :    0.039336
  18 H :    0.048021
  19 H :    0.048021
Sum of atomic charges:   -0.0000000

LOEWDIN ATOMIC CHARGES
----------------------
   0 C :   -0.032010
   1 C :   -0.032010
   2 C :   -0.018726
   3 C :   -0.018726
   4 C :   -0.015480
   5 C :   -0.015480
   6 H :    0.028318
   7 H :    0.028318
   8 H :    0.027773
   9 H :    0.027773
  10 C :   -0.027618
  11 C :   -0.027618
  12 H :    0.029680
  13 H :    0.029680
  14 C :   -0.042735
  15 C :   -0.042735
  16 H :    0.021674
  17 H :    0.021674
  18 H :    0.029124
  19 H :    0.029124

  Mayer bond orders larger than 0.100000
B(  0-C ,  2-C ) :   1.2906 B(  0-C ,  5-C ) :   1.3139 B(  0-C , 11-C ) :   1.0241
B(  1-C ,  3-C ) :   1.2906 B(  1-C ,  4-C ) :   1.3139 B(  1-C , 10-C ) :   1.0241
B(  2-C ,  4-C ) :   1.3746 B(  2-C ,  6-H ) :   0.9036 B(  3-C ,  5-C ) :   1.3746
B(  3-C ,  7-H ) :   0.9036 B(  4-C ,  8-H ) :   0.9001 B(  5-C ,  9-H ) :   0.9001
B( 10-C , 12-H ) :   0.9017 B( 10-C , 14-C ) :   1.8047 B( 11-C , 13-H ) :   0.9017
B( 11-C , 15-C ) :   1.8047 B( 14-C , 16-H ) :   0.8979 B( 14-C , 18-H ) :   0.9002
B( 15-C , 17-H ) :   0.8979 B( 15-C , 19-H ) :   0.9002

-----------------------------------------------------------------------------
         ABSORPTION SPECTRUM VIA TRANSITION ELECTRIC DIPOLE MOMENTS
-----------------------------------------------------------------------------
State   Energy  Wavelength   fosc         T2         TX        TY        TZ
        (cm-1)    (nm)                  (au**2)     (au)      (au)      (au)
-----------------------------------------------------------------------------
   1   37332.4    267.9   0.028995213   0.25569   0.50460   0.03230   0.00000
   2   41715.4    239.7   0.720581316   5.68673   2.38467   0.00801   0.00000
   3   53587.7    186.6   0.395923800   2.43233   0.99586   1.20000   0.00000
   4   57862.9    172.8   0.634497572   3.60999   1.89519   0.13511   0.00000
   5   61137.9    163.6   0.000150359   0.00081   0.00000   0.00000   0.02845

FINAL SINGLE POINT ENERGY      -385.710037940281

DIPOLE MOMENT
-------------
                                X             Y             Z
Electronic contribution:      0.00000      -0.00000       0.00000
Nuclear contribution   :      0.00000       0.00000       0.00000
                        -----------------------------------------
Total Dipole Moment    :      0.00000      -0.00000       0.00000
                        -----------------------------------------
Magnitude (a.u.)       :      0.00000
Magnitude (Debye)      :      0.00000

Rotational constants in cm-1:     0.153923     0.022856     0.019901
Rotational constants in MHz :  4614.502149   685.206697   596.615374

                             ****ORCA TERMINATED NORMALLY****
TOTAL RUN TIME: 0 days 2 hours 32 minutes 30 seconds 247 msec
