                         Program Version 5.0.3 -  RELEASE  -
|  1> ! STEOM-DLPNO-CCSD NOCOSX cc-pVDZ/C cc-pVDZ NormalPNO TightSCF
|  2> %Pal NProcs 8 end
|  3> %MaxCore 5000
|  4> %SCF
|  5>     AutoTRAH    True
|  6>     CNVDamp     False
|  7>     CNVZerner   False
|  8>     end
|  9> %mdci
| 10>     MaxIter     500
| 11>     NRoots      2
| 12>     DoTriplet   false
| 13>     STEOMSOC    false
| 14>     DoDbfilter  false
| 15>     end
| 16> *xyz 0 1
| 17> C            -1.41525000     0.23022000     0.00000000
| 18> C             1.41525000    -0.23022000     0.00000000
| 19> C            -0.49513000     1.31446000     0.00000000
| 20> C             0.49513000    -1.31446000     0.00000000
| 21> C             0.88941000     1.09095000     0.00000000
| 22> C            -0.88941000    -1.09095000     0.00000000
| 23> H            -0.87955000     2.34373000     0.00000000
| 24> H             0.87955000    -2.34373000     0.00000000
| 25> H             1.57790000     1.94501000     0.00000000
| 26> H            -1.57790000    -1.94501000     0.00000000
| 27> C             2.88458000    -0.52109000     0.00000000
| 28> C            -2.88458000     0.52109000     0.00000000
| 29> H             3.14034000    -1.59196000     0.00000000
| 30> H            -3.14034000     1.59196000     0.00000000
| 31> C             3.88004000     0.38225000     0.00000000
| 32> C            -3.88004000    -0.38225000     0.00000000
| 33> H             3.69468000     1.46244000     0.00000000
| 34> H            -3.69468000    -1.46244000     0.00000000
| 35> H             4.93165000     0.07110000     0.00000000
| 36> H            -4.93165000    -0.07110000     0.00000000
| 37> **                         ****END OF INPUT****

CARTESIAN COORDINATES (ANGSTROEM)
---------------------------------
  C     -1.415250    0.230220    0.000000
  C      1.415250   -0.230220    0.000000
  C     -0.495130    1.314460    0.000000
  C      0.495130   -1.314460    0.000000
  C      0.889410    1.090950    0.000000
  C     -0.889410   -1.090950    0.000000
  H     -0.879550    2.343730    0.000000
  H      0.879550   -2.343730    0.000000
  H      1.577900    1.945010    0.000000
  H     -1.577900   -1.945010    0.000000
  C      2.884580   -0.521090    0.000000
  C     -2.884580    0.521090    0.000000
  H      3.140340   -1.591960    0.000000
  H     -3.140340    1.591960    0.000000
  C      3.880040    0.382250    0.000000
  C     -3.880040   -0.382250    0.000000
  H      3.694680    1.462440    0.000000
  H     -3.694680   -1.462440    0.000000
  H      4.931650    0.071100    0.000000
  H     -4.931650   -0.071100    0.000000

 Total Charge           Charge          ....    0
 Multiplicity           Mult            ....    1
 Number of Electrons    NEL             ....   70
 Basis Dimension        Dim             ....  190

ORBITAL ENERGIES
----------------

  NO   OCC          E(Eh)            E(eV)
   0   2.0000     -11.256894      -306.3157
   1   2.0000     -11.256882      -306.3153
   2   2.0000     -11.251820      -306.1776
   3   2.0000     -11.251820      -306.1776
   4   2.0000     -11.249087      -306.1032
   5   2.0000     -11.249010      -306.1011
   6   2.0000     -11.247606      -306.0629
   7   2.0000     -11.247571      -306.0620
   8   2.0000     -11.240108      -305.8589
   9   2.0000     -11.240108      -305.8589
  10   2.0000      -1.153820       -31.3971
  11   2.0000      -1.082959       -29.4688
  12   2.0000      -1.035582       -28.1796
  13   2.0000      -1.013674       -27.5835
  14   2.0000      -0.972313       -26.4580
  15   2.0000      -0.860398       -23.4126
  16   2.0000      -0.823414       -22.4062
  17   2.0000      -0.783001       -21.3065
  18   2.0000      -0.750938       -20.4341
  19   2.0000      -0.679117       -18.4797
  20   2.0000      -0.659858       -17.9556
  21   2.0000      -0.629467       -17.1287
  22   2.0000      -0.610225       -16.6051
  23   2.0000      -0.606277       -16.4976
  24   2.0000      -0.581240       -15.8164
  25   2.0000      -0.563024       -15.3207
  26   2.0000      -0.545707       -14.8495
  27   2.0000      -0.512320       -13.9409
  28   2.0000      -0.501048       -13.6342
  29   2.0000      -0.490572       -13.3491
  30   2.0000      -0.479860       -13.0576
  31   2.0000      -0.430184       -11.7059
  32   2.0000      -0.371693       -10.1143
  33   2.0000      -0.337860        -9.1936
  34   2.0000      -0.284623        -7.7450
  35   0.0000       0.076464         2.0807
  36   0.0000       0.131564         3.5800
  37   0.0000       0.169698         4.6177
  38   0.0000       0.188371         5.1258
  39   0.0000       0.191847         5.2204

MULLIKEN ATOMIC CHARGES
-----------------------
   0 C :   -0.131219
   1 C :   -0.131219
   2 C :    0.023392
   3 C :    0.023392
   4 C :   -0.005563
   5 C :   -0.005563
   6 H :    0.026084
   7 H :    0.026084
   8 H :    0.029100
   9 H :    0.029100
  10 C :   -0.040136
  11 C :   -0.040136
  12 H :    0.026220
  13 H :    0.026220
  14 C :   -0.032705
  15 C :   -0.032705
  16 H :    0.047930
  17 H :    0.047930
  18 H :    0.056896
  19 H :    0.056896
Sum of atomic charges:   -0.0000000

LOEWDIN ATOMIC CHARGES
----------------------
   0 C :   -0.033262
   1 C :   -0.033262
   2 C :   -0.019403
   3 C :   -0.019403
   4 C :   -0.014906
   5 C :   -0.014906
   6 H :    0.029339
   7 H :    0.029339
   8 H :    0.029171
   9 H :    0.029171
  10 C :   -0.023788
  11 C :   -0.023788
  12 H :    0.030984
  13 H :    0.030984
  14 C :   -0.048921
  15 C :   -0.048921
  16 H :    0.021898
  17 H :    0.021898
  18 H :    0.028888
  19 H :    0.028888

  Mayer bond orders larger than 0.100000
B(  0-C ,  2-C ) :   1.3922 B(  0-C ,  5-C ) :   1.4195 B(  0-C , 11-C ) :   1.0741
B(  1-C ,  3-C ) :   1.3922 B(  1-C ,  4-C ) :   1.4195 B(  1-C , 10-C ) :   1.0741
B(  2-C ,  4-C ) :   1.4917 B(  2-C ,  6-H ) :   0.9697 B(  3-C ,  5-C ) :   1.4917
B(  3-C ,  7-H ) :   0.9697 B(  4-C ,  8-H ) :   0.9666 B(  5-C ,  9-H ) :   0.9666
B( 10-C , 12-H ) :   0.9680 B( 10-C , 14-C ) :   1.9824 B( 11-C , 13-H ) :   0.9680
B( 11-C , 15-C ) :   1.9824 B( 14-C , 16-H ) :   0.9602 B( 14-C , 18-H ) :   0.9627
B( 15-C , 17-H ) :   0.9602 B( 15-C , 19-H ) :   0.9627

E(0)                                       ...   -384.493309986
E(0)                                       ...   -384.493309986
E(CORR)(strong-pairs)                      ...     -1.381741228
E(CORR)(weak-pairs)                        ...     -0.004309434
E(CORR)(corrected)                         ...     -1.386050662
E(TOT)                                     ...   -385.879360649

-----------------------------------------------------------------------------
         ABSORPTION SPECTRUM VIA TRANSITION ELECTRIC DIPOLE MOMENTS
-----------------------------------------------------------------------------
State   Energy  Wavelength   fosc         T2         TX        TY        TZ
        (cm-1)    (nm)                  (au**2)     (au)      (au)      (au)
-----------------------------------------------------------------------------
   1   40232.0    248.6   0.736995971   6.03072   2.45559   0.02805   0.00001
   2   54565.9    183.3   0.004619167   0.02787   0.10756   0.12764   0.00001

FINAL SINGLE POINT ENERGY      -385.696050070768

DIPOLE MOMENT
-------------
                                X             Y             Z
Electronic contribution:      0.00693       0.00601       0.00000
Nuclear contribution   :      0.00000       0.00000       0.00000
                        -----------------------------------------
Total Dipole Moment    :      0.00693       0.00601       0.00000
                        -----------------------------------------
Magnitude (a.u.)       :      0.00917
Magnitude (Debye)      :      0.02331

Rotational constants in cm-1:     0.153923     0.022856     0.019901
Rotational constants in MHz :  4614.502149   685.206697   596.615374

                             ****ORCA TERMINATED NORMALLY****
TOTAL RUN TIME: 0 days 0 hours 17 minutes 13 seconds 868 msec
