                         Program Version 5.0.3 -  RELEASE  -
|  1> ! PBE0 NOCOSX NORI STO-3G TightSCF SP CPCM
|  2> %Pal NProcs 8 end
|  3> %MaxCore 2500
|  4> %SCF
|  5>     AutoTRAH    True
|  6>     CNVDamp     False
|  7>     CNVZerner   False
|  8>     end
|  9> %cpcm
| 10>     epsilon     2.3741
| 11>     refrac      1.497
| 12>     fepstype    COSMO
| 13>     end
| 14> *xyz 0 1
| 15> O            -0.00000000    -0.11915900     0.00000000
| 16> H            -0.79064900     0.47663700     0.00000000
| 17> H             0.79064900     0.47663700    -0.00000000
| 18> *
| 19>
| 20>                          ****END OF INPUT****

CARTESIAN COORDINATES (ANGSTROEM)
---------------------------------
  O     -0.000000   -0.119159    0.000000
  H     -0.790649    0.476637    0.000000
  H      0.790649    0.476637   -0.000000

 Total Charge           Charge          ....    0
 Multiplicity           Mult            ....    1
 Number of Electrons    NEL             ....   10
 Basis Dimension        Dim             ....    7

ORBITAL ENERGIES
----------------

  NO   OCC          E(Eh)            E(eV)
   0   2.0000     -18.892946      -514.1032
   1   2.0000      -0.938834       -25.5470
   2   2.0000      -0.441724       -12.0199
   3   2.0000      -0.240970        -6.5571
   4   2.0000      -0.152175        -4.1409
   5   0.0000       0.351017         9.5517
   6   0.0000       0.466171        12.6852

MULLIKEN ATOMIC CHARGES
-----------------------
   0 O :   -0.360204
   1 H :    0.180102
   2 H :    0.180102
Sum of atomic charges:    0.0000000

LOEWDIN ATOMIC CHARGES
----------------------
   0 O :   -0.254468
   1 H :    0.127234
   2 H :    0.127234

  Mayer bond orders larger than 0.100000
B(  0-O ,  1-H ) :   0.9558 B(  0-O ,  2-H ) :   0.9558

FINAL SINGLE POINT ENERGY       -75.252864213712

DIPOLE MOMENT
-------------
                                X             Y             Z
Electronic contribution:      0.00000      -0.33020       0.00000
Nuclear contribution   :      0.00000       0.99183       0.00000
                        -----------------------------------------
Total Dipole Moment    :      0.00000       0.66164       0.00000
                        -----------------------------------------
Magnitude (a.u.)       :      0.66164
Magnitude (Debye)      :      1.68174

Rotational constants in cm-1:    26.524832    13.376390     8.892121
Rotational constants in MHz : 795194.445665 401014.082600 266579.081809

                             ****ORCA TERMINATED NORMALLY****
TOTAL RUN TIME: 0 days 0 hours 1 minutes 8 seconds 821 msec
