                         Program Version 5.0.3 -  RELEASE  -
|  1> ! PBE0 NOCOSX NORI STO-3G TightSCF SP CPCM
|  2> %Pal NProcs 8 end
|  3> %MaxCore 2500
|  4> %SCF
|  5>     AutoTRAH    True
|  6>     CNVDamp     False
|  7>     CNVZerner   False
|  8>     end
|  9> %cpcm
| 10>     epsilon     2.3741
| 11>     refrac      1.497
| 12>     fepstype    CPCM
| 13>     end
| 14> *xyz 0 1
| 15> O            -0.00000000    -0.11915900     0.00000000
| 16> H            -0.79064900     0.47663700     0.00000000
| 17> H             0.79064900     0.47663700    -0.00000000
| 18> *
| 19>
| 20>                          ****END OF INPUT****

CARTESIAN COORDINATES (ANGSTROEM)
---------------------------------
  O     -0.000000   -0.119159    0.000000
  H     -0.790649    0.476637    0.000000
  H      0.790649    0.476637   -0.000000

 Total Charge           Charge          ....    0
 Multiplicity           Mult            ....    1
 Number of Electrons    NEL             ....   10
 Basis Dimension        Dim             ....    7

ORBITAL ENERGIES
----------------

  NO   OCC          E(Eh)            E(eV)
   0   2.0000     -18.891602      -514.0666
   1   2.0000      -0.937990       -25.5240
   2   2.0000      -0.440847       -11.9960
   3   2.0000      -0.240723        -6.5504
   4   2.0000      -0.151789        -4.1304
   5   0.0000       0.352474         9.5913
   6   0.0000       0.467370        12.7178

MULLIKEN ATOMIC CHARGES
-----------------------
   0 O :   -0.363013
   1 H :    0.181506
   2 H :    0.181506
Sum of atomic charges:    0.0000000

LOEWDIN ATOMIC CHARGES
----------------------
   0 O :   -0.256881
   1 H :    0.128441
   2 H :    0.128441

  Mayer bond orders larger than 0.100000
B(  0-O ,  1-H ) :   0.9554 B(  0-O ,  2-H ) :   0.9554

FINAL SINGLE POINT ENERGY       -75.253440122793

DIPOLE MOMENT
-------------
                                X             Y             Z
Electronic contribution:      0.00000      -0.32647       0.00000
Nuclear contribution   :      0.00000       0.99183       0.00000
                        -----------------------------------------
Total Dipole Moment    :      0.00000       0.66536       0.00000
                        -----------------------------------------
Magnitude (a.u.)       :      0.66536
Magnitude (Debye)      :      1.69121

Rotational constants in cm-1:    26.524832    13.376390     8.892121
Rotational constants in MHz : 795194.445665 401014.082600 266579.081809

                             ****ORCA TERMINATED NORMALLY****
TOTAL RUN TIME: 0 days 0 hours 1 minutes 10 seconds 502 msec
