                         Program Version 5.0.3 -  RELEASE  -
|  1> ! PBE0 NOCOSX NORI STO-3G TightSCF SP CPCM
|  2> %Pal NProcs 8 end
|  3> %MaxCore 2500
|  4> %SCF
|  5>     AutoTRAH    True
|  6>     CNVDamp     False
|  7>     CNVZerner   False
|  8>     end
|  9> %cpcm
| 10>     smd         True
| 11>     smdsolvent  "Toluene"
| 12>     end
| 13> *xyz 0 1
| 14> O            -0.00000000    -0.11915900     0.00000000
| 15> H            -0.79064900     0.47663700     0.00000000
| 16> H             0.79064900     0.47663700    -0.00000000
| 17> *
| 18>
| 19>                          ****END OF INPUT****

CARTESIAN COORDINATES (ANGSTROEM)
---------------------------------
  O     -0.000000   -0.119159    0.000000
  H     -0.790649    0.476637    0.000000
  H      0.790649    0.476637   -0.000000

 Total Charge           Charge          ....    0
 Multiplicity           Mult            ....    1
 Number of Electrons    NEL             ....   10
 Basis Dimension        Dim             ....    7

ORBITAL ENERGIES
----------------

  NO   OCC          E(Eh)            E(eV)
   0   2.0000     -18.892911      -514.1022
   1   2.0000      -0.938295       -25.5323
   2   2.0000      -0.441240       -12.0067
   3   2.0000      -0.239564        -6.5189
   4   2.0000      -0.150944        -4.1074
   5   0.0000       0.350924         9.5491
   6   0.0000       0.466427        12.6921

MULLIKEN ATOMIC CHARGES
-----------------------
   0 O :   -0.356885
   1 H :    0.178443
   2 H :    0.178443
Sum of atomic charges:    0.0000000

LOEWDIN ATOMIC CHARGES
----------------------
   0 O :   -0.251615
   1 H :    0.125807
   2 H :    0.125807

  Mayer bond orders larger than 0.100000
B(  0-O ,  1-H ) :   0.9564 B(  0-O ,  2-H ) :   0.9564

FINAL SINGLE POINT ENERGY       -75.253452999585

DIPOLE MOMENT
-------------
                                X             Y             Z
Electronic contribution:      0.00000      -0.33464       0.00000
Nuclear contribution   :      0.00000       0.99183       0.00000
                        -----------------------------------------
Total Dipole Moment    :      0.00000       0.65719       0.00000
                        -----------------------------------------
Magnitude (a.u.)       :      0.65719
Magnitude (Debye)      :      1.67045

Rotational constants in cm-1:    26.524832    13.376390     8.892121
Rotational constants in MHz : 795194.445665 401014.082600 266579.081809

                             ****ORCA TERMINATED NORMALLY****
TOTAL RUN TIME: 0 days 0 hours 0 minutes 12 seconds 259 msec
